unknown system                          
   1.00000000000000     
     0.000000    2.816500    2.816500
     2.816500    0.000000    2.816500
     2.816500    2.816500    0.000000
   Ge
     2
Direct
  0.000000  0.000000  0.000000
  0.250000  0.250000  0.250000
 
   48   48   48
 0.84187258738E+03 0.81881199692E+03 0.75309706973E+03 0.65425038445E+03 0.53558607022E+03
 0.41143502044E+03 0.29471840782E+03 0.19529277872E+03 0.11903106293E+03 0.67459508352E+02
 0.37930317788E+02 0.24467453371E+02 0.19317840999E+02 0.16161173047E+02 0.13804642696E+02
 0.12028089489E+02 0.10648331839E+02 0.95490983792E+01 0.86667124775E+01 0.79670574540E+01
 0.74282525695E+01 0.70320911020E+01 0.67623547850E+01 0.66060793697E+01 0.65549432063E+01
 0.66060798395E+01 0.67623553186E+01 0.70320913267E+01 0.74282524968E+01 0.79670573577E+01
 0.86667125120E+01 0.95490984289E+01 0.10648331731E+02 0.12028089240E+02 0.13804642488E+02
 0.16161173002E+02 0.19317841067E+02 0.24467453435E+02 0.37930317820E+02 0.67459508416E+02
 0.11903106306E+03 0.19529277886E+03 0.29471840786E+03 0.41143502035E+03 0.53558607006E+03
 0.65425038434E+03 0.75309706971E+03 0.81881199694E+03 0.81881199692E+03 0.77428856703E+03
 0.69188909717E+03 0.58325566109E+03 0.46239398018E+03 0.34299760365E+03 0.23640108817E+03
 0.15033703182E+03 0.88343740734E+02 0.49694391920E+02 0.29912667332E+02 0.21982348310E+02
 0.18353865836E+02 0.15681697452E+02 0.13682381424E+02 0.12149578534E+02 0.10937653504E+02
 0.99628430431E+01 0.91814674184E+01 0.85688975653E+01 0.81067024345E+01 0.77780809007E+01
 0.75682672230E+01 0.74662699362E+01 0.74662521773E+01 0.75682451203E+01 0.77780934331E+01
 0.81067279792E+01 0.85688913493E+01 0.91814400713E+01 0.99628430914E+01 0.10937683154E+02
 0.12149588722E+02 0.13682355650E+02 0.15681680098E+02 0.18353885909E+02 0.21982369369E+02
 0.29912648903E+02 0.49694357086E+02 0.88343737302E+02 0.15033705800E+03 0.23640110786E+03
 0.34299761334E+03 0.46239400188E+03 0.58325567768E+03 0.69188906118E+03 0.77428848698E+03
 0.81881195342E+03 0.75309706973E+03 0.69188909717E+03 0.59995563286E+03 0.48985819423E+03
 0.37509318831E+03 0.26777013328E+03 0.17701897154E+03 0.10811715121E+03 0.62184526662E+02
 0.36420424585E+02 0.24980668723E+02 0.20494988733E+02 0.17549029752E+02 0.15345340185E+02
 0.13673701446E+02 0.12364982692E+02 0.11314718111E+02 0.10467643324E+02 0.97950113720E+01
 0.92778469343E+01 0.88990800859E+01 0.86425140044E+01 0.84946069923E+01 0.84463593013E+01
 0.84946068708E+01 0.86425136850E+01 0.88990795734E+01 0.92778464540E+01 0.97950112920E+01
 0.10467643850E+02 0.11314718999E+02 0.12364983329E+02 0.13673701355E+02 0.15345339538E+02
 0.17549029281E+02 0.20494988932E+02 0.24980669111E+02 0.36420424030E+02 0.62184524771E+02
 0.10811714939E+03 0.17701897220E+03 0.26777013738E+03 0.37509319357E+03 0.48985819633E+03
 0.59995562910E+03 0.69188908939E+03 0.75309706345E+03 0.77459066455E+03 0.65425038445E+03
 0.58325566109E+03 0.48985819423E+03 0.38634725951E+03 0.28474644035E+03 0.19495104157E+03
 0.12355353442E+03 0.73283093776E+02 0.42990330235E+02 0.28225890290E+02 0.22450622320E+02
 0.19305153352E+02 0.16940054860E+02 0.15157926674E+02 0.13777302489E+02 0.12676088868E+02
 0.11786932838E+02 0.11075896634E+02 0.10523040594E+02 0.10111126215E+02 0.98225189456E+01
 0.96408107690E+01 0.95533964994E+01 0.95534117996E+01 0.96408294747E+01 0.98225071645E+01
 0.10111103103E+02 0.10523045515E+02 0.11075920568E+02 0.11786933707E+02 0.12676064613E+02
 0.13777294776E+02 0.15157948432E+02 0.16940067708E+02 0.19305134852E+02 0.22450606548E+02
 0.28225910230E+02 0.42990359931E+02 0.73283089200E+02 0.12355350330E+03 0.19495102539E+03
 0.28474644489E+03 0.38634725577E+03 0.48985818266E+03 0.58325567821E+03 0.65425043355E+03
 0.69265148305E+03 0.69265145480E+03 0.53558607022E+03 0.46239398018E+03 0.37509318831E+03
 0.28474644035E+03 0.20126958297E+03 0.13201157201E+03 0.80934034710E+02 0.48350206485E+02
 0.31235766506E+02 0.24147686412E+02 0.20835446580E+02 0.18376674389E+02 0.16528617546E+02
 0.15110908409E+02 0.13990497413E+02 0.13089898764E+02 0.12369854308E+02 0.11809020786E+02
 0.11389927498E+02 0.11093431175E+02 0.10899620301E+02 0.10791173779E+02 0.10756399991E+02
 0.10791174040E+02 0.10899620404E+02 0.11093430752E+02 0.11389926696E+02 0.11809020247E+02
 0.12369854601E+02 0.13089899819E+02 0.13990498514E+02 0.15110908779E+02 0.16528616962E+02
 0.18376673279E+02 0.20835445629E+02 0.24147686108E+02 0.31235766940E+02 0.48350207381E+02
 0.80934035568E+02 0.13201157234E+03 0.20126958261E+03 0.28474643960E+03 0.37509318772E+03
 0.46239398014E+03 0.53558607065E+03 0.58441532089E+03 0.60157611677E+03 0.58441532047E+03
 0.41143502044E+03 0.34299760365E+03 0.26777013328E+03 0.19495104157E+03 0.13201157201E+03
 0.83662416337E+02 0.51362190490E+02 0.33384031072E+02 0.25465087958E+02 0.22026939264E+02
 0.19561106710E+02 0.17706422275E+02 0.16295944020E+02 0.15194342319E+02 0.14318206293E+02
 0.13624416778E+02 0.13090454618E+02 0.12698515720E+02 0.12427703697E+02 0.12253872889E+02
 0.12153563238E+02 0.12108412079E+02 0.12108400879E+02 0.12153549770E+02 0.12253881889E+02
 0.12427720272E+02 0.12698510803E+02 0.13090436253E+02 0.13624417208E+02 0.14318226319E+02
 0.15194349552E+02 0.16295928435E+02 0.17706412415E+02 0.19561118120E+02 0.22026945724E+02
 0.25465067849E+02 0.33384009845E+02 0.51362203491E+02 0.83662451387E+02 0.13201158719E+03
 0.19495102825E+03 0.26777012121E+03 0.34299760595E+03 0.41143501560E+03 0.46369091509E+03
 0.49201698260E+03 0.49201699662E+03 0.46369093731E+03 0.29471840782E+03 0.23640108817E+03
 0.17701897154E+03 0.12355353442E+03 0.80934034710E+02 0.51362190490E+02 0.34164235252E+02
 0.26197465225E+02 0.22784350420E+02 0.20406995120E+02 0.18614559032E+02 0.17262179744E+02
 0.16221265101E+02 0.15408175691E+02 0.14778714330E+02 0.14310360408E+02 0.13985418298E+02
 0.13781168767E+02 0.13668458248E+02 0.13616117859E+02 0.13596979257E+02 0.13592746001E+02
 0.13596980440E+02 0.13616119008E+02 0.13668458083E+02 0.13781167152E+02 0.13985416395E+02
 0.14310359684E+02 0.14778715345E+02 0.15408177694E+02 0.16221266737E+02 0.17262180186E+02
 0.18614558496E+02 0.20406994299E+02 0.22784349535E+02 0.26197463874E+02 0.34164233389E+02
 0.51362189333E+02 0.80934036096E+02 0.12355353876E+03 0.17701897647E+03 0.23640108980E+03
 0.29471840399E+03 0.34408394349E+03 0.37719047871E+03 0.38885201498E+03 0.37719048450E+03
 0.34408395082E+03 0.19529277872E+03 0.15033703182E+03 0.10811715121E+03 0.73283093776E+02
 0.48350206485E+02 0.33384031072E+02 0.26197465225E+02 0.23044211487E+02 0.20847955101E+02
 0.19188440301E+02 0.17946738288E+02 0.17008463949E+02 0.16295944020E+02 0.15767705745E+02
 0.15403220726E+02 0.15185926988E+02 0.15091745737E+02 0.15086220344E+02 0.15129136039E+02
 0.15182346956E+02 0.15216751927E+02 0.15216760529E+02 0.15182358443E+02 0.15129131636E+02
 0.15086207901E+02 0.15091745021E+02 0.15185935820E+02 0.15403220577E+02 0.15767695477E+02
 0.16295941780E+02 0.17008474502E+02 0.17946744715E+02 0.19188435427E+02 0.20847955590E+02
 0.23044226099E+02 0.26197471915E+02 0.33384008556E+02 0.48350173418E+02 0.73283089088E+02
 0.10811718086E+03 0.15033706150E+03 0.19529278060E+03 0.23697973032E+03 0.26917482222E+03
 0.28673087882E+03 0.28673088345E+03 0.26917483726E+03 0.23697974793E+03 0.11903106293E+03
 0.88343740734E+02 0.62184526662E+02 0.42990330235E+02 0.31235766506E+02 0.25465087958E+02
 0.22784350420E+02 0.20847955101E+02 0.19384801097E+02 0.18301913974E+02 0.17503931546E+02
 0.16924407474E+02 0.16528617546E+02 0.16300720497E+02 0.16226988367E+02 0.16282999834E+02
 0.16429340782E+02 0.16616150132E+02 0.16792687872E+02 0.16916812587E+02 0.16961299767E+02
 0.16916814200E+02 0.16792690370E+02 0.16616152155E+02 0.16429340976E+02 0.16282997911E+02
 0.16226985588E+02 0.16300718808E+02 0.16528617953E+02 0.16924409232E+02 0.17503932995E+02
 0.18301914188E+02 0.19384800670E+02 0.20847955307E+02 0.22784351658E+02 0.25465089116E+02
 0.31235765949E+02 0.42990327507E+02 0.62184523198E+02 0.88343738852E+02 0.11903106403E+03
 0.15026473383E+03 0.17730845293E+03 0.19568587989E+03 0.20219847758E+03 0.19568587719E+03
 0.17730844875E+03 0.15026473024E+03 0.67459508352E+02 0.49694391920E+02 0.36420424585E+02
 0.28225890290E+02 0.24147686412E+02 0.22026939264E+02 0.20406995120E+02 0.19188440301E+02
 0.18301913974E+02 0.17673124984E+02 0.17250328180E+02 0.17008783322E+02 0.16940054860E+02
 0.17035548839E+02 0.17272323610E+02 0.17607134493E+02 0.17980663685E+02 0.18333182009E+02
 0.18636673163E+02 0.18823712340E+02 0.18823708700E+02 0.18636669681E+02 0.18333187999E+02
 0.17980673482E+02 0.17607135483E+02 0.17272315903E+02 0.17035544303E+02 0.16940058322E+02
 0.17008787162E+02 0.17250326450E+02 0.17673120816E+02 0.18301909963E+02 0.19188433919E+02
 0.20406989878E+02 0.22026948045E+02 0.24147712029E+02 0.28225911103E+02 0.36420414761E+02
 0.49694354862E+02 0.67459477040E+02 0.87655924694E+02 0.10719994052E+03 0.12269967701E+03
 0.13127477236E+03 0.13127475849E+03 0.12269964333E+03 0.10719990984E+03 0.87655922887E+02
 0.37930317788E+02 0.29912667332E+02 0.24980668723E+02 0.22450622320E+02 0.20835446580E+02
 0.19561106710E+02 0.18614559032E+02 0.17946738288E+02 0.17503931546E+02 0.17250328180E+02
 0.17172974150E+02 0.17272894855E+02 0.17549029752E+02 0.17982510382E+02 0.18528493571E+02
 0.19123821905E+02 0.19793281825E+02 0.20515072781E+02 0.21093022256E+02 0.21315147363E+02
 0.21093022812E+02 0.20515074191E+02 0.19793283943E+02 0.19123823636E+02 0.18528493475E+02
 0.17982508046E+02 0.17549026575E+02 0.17272893192E+02 0.17172975349E+02 0.17250331296E+02
 0.17503934023E+02 0.17946738101E+02 0.18614556402E+02 0.19561103900E+02 0.20835445960E+02
 0.22450624378E+02 0.24980671715E+02 0.29912668858E+02 0.37930316875E+02 0.48551669038E+02
 0.60264946592E+02 0.70942597282E+02 0.78424311386E+02 0.81113871579E+02 0.78424310775E+02
 0.70942597303E+02 0.60264948116E+02 0.48551671239E+02 0.24467453371E+02 0.21982348310E+02
 0.20494988733E+02 0.19305153352E+02 0.18376674389E+02 0.17706422275E+02 0.17262179744E+02
 0.17008463949E+02 0.16924407474E+02 0.17008783322E+02 0.17272894855E+02 0.17725169928E+02
 0.18353865836E+02 0.19115968225E+02 0.19979949005E+02 0.21113570629E+02 0.22476208544E+02
 0.23740099723E+02 0.24504265244E+02 0.24504266399E+02 0.23740101128E+02 0.22476207593E+02
 0.21113568751E+02 0.19979949238E+02 0.19115969596E+02 0.18353864129E+02 0.17725164448E+02
 0.17272891131E+02 0.17008787463E+02 0.16924419319E+02 0.17008476401E+02 0.17262183373E+02
 0.17706411166E+02 0.18376651573E+02 0.19305132650E+02 0.20494987324E+02 0.21982371769E+02
 0.24467487248E+02 0.28506387360E+02 0.33846034381E+02 0.39560598654E+02 0.44387290219E+02
 0.47151335333E+02 0.47151348652E+02 0.44387322449E+02 0.39560629902E+02 0.33846043589E+02
 0.28506367759E+02 0.19317840999E+02 0.18353865836E+02 0.17549029752E+02 0.16940054860E+02
 0.16528617546E+02 0.16295944020E+02 0.16221265101E+02 0.16295944020E+02 0.16528617546E+02
 0.16940054860E+02 0.17549029752E+02 0.18353865836E+02 0.19317840999E+02 0.20451539545E+02
 0.22064951768E+02 0.24158924992E+02 0.26319217718E+02 0.27953297246E+02 0.28562292749E+02
 0.27953295943E+02 0.26319216750E+02 0.24158925919E+02 0.22064954397E+02 0.20451541958E+02
 0.19317841195E+02 0.18353863400E+02 0.17549026157E+02 0.16940052350E+02 0.16528617635E+02
 0.16295946641E+02 0.16221268753E+02 0.16295946641E+02 0.16528617635E+02 0.16940052350E+02
 0.17549026157E+02 0.18353863400E+02 0.19317841195E+02 0.20451541958E+02 0.22064954397E+02
 0.24158925919E+02 0.26319216750E+02 0.27953295943E+02 0.28562292749E+02 0.27953297246E+02
 0.26319217718E+02 0.24158924992E+02 0.22064951768E+02 0.20451539545E+02 0.16161173047E+02
 0.15681697452E+02 0.15345340185E+02 0.15157926674E+02 0.15110908409E+02 0.15194342319E+02
 0.15408175691E+02 0.15767705745E+02 0.16300720497E+02 0.17035548839E+02 0.17982510382E+02
 0.19115968225E+02 0.20451539545E+02 0.22413992213E+02 0.25138399978E+02 0.28213665563E+02
 0.30908880322E+02 0.32484824677E+02 0.32484824184E+02 0.30908879257E+02 0.28213665318E+02
 0.25138402197E+02 0.22413996738E+02 0.20451543846E+02 0.19115969855E+02 0.17982508931E+02
 0.17035544304E+02 0.16300711746E+02 0.15767693978E+02 0.15408168740E+02 0.15194350356E+02
 0.15110931899E+02 0.15157950836E+02 0.15345345801E+02 0.15681678478E+02 0.16161142355E+02
 0.16754287508E+02 0.17406995965E+02 0.18052979792E+02 0.18691153030E+02 0.19265717918E+02
 0.19616030115E+02 0.19616022393E+02 0.19265697575E+02 0.18691128271E+02 0.18052962620E+02
 0.17406997389E+02 0.16754309589E+02 0.13804642696E+02 0.13682381424E+02 0.13673701446E+02
 0.13777302489E+02 0.13990497413E+02 0.14318206293E+02 0.14778714330E+02 0.15403220726E+02
 0.16226988367E+02 0.17272323610E+02 0.18528493571E+02 0.19979949005E+02 0.22064951768E+02
 0.25138399978E+02 0.28910863903E+02 0.32617954584E+02 0.35337374586E+02 0.36336304164E+02
 0.35337371728E+02 0.32617951222E+02 0.28910862718E+02 0.25138401764E+02 0.22064954971E+02
 0.19979951260E+02 0.18528493675E+02 0.17272322144E+02 0.16226986676E+02 0.15403219548E+02
 0.14778713489E+02 0.14318205532E+02 0.13990497160E+02 0.13777303555E+02 0.13673703916E+02
 0.13682384039E+02 0.13804643605E+02 0.14031601451E+02 0.14338977990E+02 0.14687524237E+02
 0.15028839360E+02 0.15314167358E+02 0.15502960525E+02 0.15568906536E+02 0.15502958473E+02
 0.15314165178E+02 0.15028839185E+02 0.14687526519E+02 0.14338981107E+02 0.14031603101E+02
 0.12028089489E+02 0.12149578534E+02 0.12364982692E+02 0.12676088868E+02 0.13089898764E+02
 0.13624416778E+02 0.14310360408E+02 0.15185926988E+02 0.16282999834E+02 0.17607134493E+02
 0.19123821905E+02 0.21113570629E+02 0.24158924992E+02 0.28213665563E+02 0.32617954584E+02
 0.36381211620E+02 0.38551046075E+02 0.38551042542E+02 0.36381204743E+02 0.32617950661E+02
 0.28213665906E+02 0.24158925899E+02 0.21113569426E+02 0.19123820018E+02 0.17607135205E+02
 0.16283005541E+02 0.15185937588E+02 0.14310370782E+02 0.13624416697E+02 0.13089881249E+02
 0.12676061631E+02 0.12364966734E+02 0.12149589545E+02 0.12028120835E+02 0.11997030796E+02
 0.12045638433E+02 0.12153951029E+02 0.12294203150E+02 0.12435211329E+02 0.12547875640E+02
 0.12610105508E+02 0.12610106131E+02 0.12547880349E+02 0.12435224868E+02 0.12294223746E+02
 0.12153966077E+02 0.12045632738E+02 0.11997002947E+02 0.10648331839E+02 0.10937653504E+02
 0.11314718111E+02 0.11786932838E+02 0.12369854308E+02 0.13090454618E+02 0.13985418298E+02
 0.15091745737E+02 0.16429340782E+02 0.17980663685E+02 0.19793281825E+02 0.22476208544E+02
 0.26319217718E+02 0.30908880322E+02 0.35337374586E+02 0.38551046075E+02 0.39725624065E+02
 0.38551044384E+02 0.35337371945E+02 0.30908878103E+02 0.26319217288E+02 0.22476210205E+02
 0.19793284307E+02 0.17980665015E+02 0.16429340035E+02 0.15091743964E+02 0.13985417541E+02
 0.13090455855E+02 0.12369856375E+02 0.11786933516E+02 0.11314716345E+02 0.10937650533E+02
 0.10648330105E+02 0.10442187801E+02 0.10312630460E+02 0.10248321193E+02 0.10233121668E+02
 0.10248117372E+02 0.10274646333E+02 0.10297272387E+02 0.10305966758E+02 0.10297273858E+02
 0.10274648475E+02 0.10248118797E+02 0.10233121144E+02 0.10248318732E+02 0.10312627694E+02
 0.10442186885E+02 0.95490983792E+01 0.99628430431E+01 0.10467643324E+02 0.11075896634E+02
 0.11809020786E+02 0.12698515720E+02 0.13781168767E+02 0.15086220344E+02 0.16616150132E+02
 0.18333182009E+02 0.20515072781E+02 0.23740099723E+02 0.27953297246E+02 0.32484824677E+02
 0.36336304164E+02 0.38551042542E+02 0.38551044384E+02 0.36336306740E+02 0.32484823823E+02
 0.27953294527E+02 0.23740100942E+02 0.20515079627E+02 0.18333188179E+02 0.16616147189E+02
 0.15086206659E+02 0.13781152609E+02 0.12698510201E+02 0.11809034118E+02 0.11075923685E+02
 0.10467665932E+02 0.99628427157E+01 0.95490730105E+01 0.92190788116E+01 0.89664003383E+01
 0.87825587363E+01 0.86564028783E+01 0.85752228073E+01 0.85266201872E+01 0.85002379512E+01
 0.84888654087E+01 0.84888690241E+01 0.85002437763E+01 0.85266175703E+01 0.85752062244E+01
 0.86563806640E+01 0.87825493244E+01 0.89664157690E+01 0.92191109208E+01 0.86667124775E+01
 0.91814674184E+01 0.97950113720E+01 0.10523040594E+02 0.11389927498E+02 0.12427703697E+02
 0.13668458248E+02 0.15129136039E+02 0.16792687872E+02 0.18636673163E+02 0.21093022256E+02
 0.24504265244E+02 0.28562292749E+02 0.32484824184E+02 0.35337371728E+02 0.36381204743E+02
 0.35337371945E+02 0.32484823823E+02 0.28562291310E+02 0.24504263471E+02 0.21093021751E+02
 0.18636674853E+02 0.16792690829E+02 0.15129137985E+02 0.13668457466E+02 0.12427700602E+02
 0.11389924395E+02 0.10523039830E+02 0.97950134976E+01 0.91814708360E+01 0.86667147425E+01
 0.82410499368E+01 0.78970692393E+01 0.76268084364E+01 0.74207447182E+01 0.72684928014E+01
 0.71602737474E+01 0.70882050100E+01 0.70469118030E+01 0.70334504814E+01 0.70469109632E+01
 0.70882034198E+01 0.71602720169E+01 0.72684920937E+01 0.74207459186E+01 0.76268111421E+01
 0.78970717066E+01 0.82410502833E+01 0.79670574540E+01 0.85688975653E+01 0.92778469343E+01
 0.10111126215E+02 0.11093431175E+02 0.12253872889E+02 0.13616117859E+02 0.15182346956E+02
 0.16916812587E+02 0.18823712340E+02 0.21315147363E+02 0.24504266399E+02 0.27953295943E+02
 0.30908879257E+02 0.32617951222E+02 0.32617950661E+02 0.30908878103E+02 0.27953294527E+02
 0.24504263471E+02 0.21315141920E+02 0.18823707186E+02 0.16916814152E+02 0.15182359190E+02
 0.13616135593E+02 0.12253882828E+02 0.11093422154E+02 0.10111100457E+02 0.92778211473E+01
 0.85688908917E+01 0.79670757179E+01 0.74612097583E+01 0.70430789052E+01 0.67046392356E+01
 0.64367560942E+01 0.62296028794E+01 0.60739697653E+01 0.59625087918E+01 0.58903139391E+01
 0.58547356421E+01 0.58547312034E+01 0.58903046982E+01 0.59625043540E+01 0.60739781279E+01
 0.62296224850E+01 0.64367740488E+01 0.67046399517E+01 0.70430577864E+01 0.74611794403E+01
 0.74282525695E+01 0.81067024345E+01 0.88990800859E+01 0.98225189456E+01 0.10899620301E+02
 0.12153563238E+02 0.13596979257E+02 0.15216751927E+02 0.16961299767E+02 0.18823708700E+02
 0.21093022812E+02 0.23740101128E+02 0.26319216750E+02 0.28213665318E+02 0.28910862718E+02
 0.28213665906E+02 0.26319217288E+02 0.23740100942E+02 0.21093021751E+02 0.18823707186E+02
 0.16961298538E+02 0.15216751762E+02 0.13596980634E+02 0.12153565849E+02 0.10899622855E+02
 0.98225197812E+01 0.88990783927E+01 0.81066990727E+01 0.74282496302E+01 0.68520785029E+01
 0.63696444297E+01 0.59729156266E+01 0.56529219418E+01 0.53998784258E+01 0.52043597669E+01
 0.50585981072E+01 0.49572213564E+01 0.48972217043E+01 0.48773249258E+01 0.48972215732E+01
 0.49572218037E+01 0.50585994706E+01 0.52043612139E+01 0.53998785077E+01 0.56529200216E+01
 0.59729127164E+01 0.63696425645E+01 0.68520791683E+01 0.70320911020E+01 0.77780809007E+01
 0.86425140044E+01 0.96408107690E+01 0.10791173779E+02 0.12108412079E+02 0.13592746001E+02
 0.15216760529E+02 0.16916814200E+02 0.18636669681E+02 0.20515074191E+02 0.22476207593E+02
 0.24158925919E+02 0.25138402197E+02 0.25138401764E+02 0.24158925899E+02 0.22476210205E+02
 0.20515079627E+02 0.18636674853E+02 0.16916814152E+02 0.15216751762E+02 0.13592730596E+02
 0.12108399573E+02 0.10791176289E+02 0.96408319578E+01 0.86425418392E+01 0.77780946631E+01
 0.70320791408E+01 0.63933001442E+01 0.58533587830E+01 0.54044439806E+01 0.50378367970E+01
 0.47437972491E+01 0.45125747523E+01 0.43357268628E+01 0.42070247907E+01 0.41226551612E+01
 0.40807825804E+01 0.40807852661E+01 0.41226618127E+01 0.42070311405E+01 0.43357267305E+01
 0.45125638518E+01 0.47437788026E+01 0.50378231182E+01 0.54044486352E+01 0.58533833903E+01
 0.63933291650E+01 0.67623547850E+01 0.75682672230E+01 0.84946069923E+01 0.95533964994E+01
 0.10756399991E+02 0.12108400879E+02 0.13596980440E+02 0.15182358443E+02 0.16792690370E+02
 0.18333187999E+02 0.19793283943E+02 0.21113568751E+02 0.22064954397E+02 0.22413996738E+02
 0.22064954971E+02 0.21113569426E+02 0.19793284307E+02 0.18333188179E+02 0.16792690829E+02
 0.15182359190E+02 0.13596980634E+02 0.12108399573E+02 0.10756397449E+02 0.95533944875E+01
 0.84946073711E+01 0.75682701033E+01 0.67623582049E+01 0.60671552883E+01 0.54748857882E+01
 0.49781366794E+01 0.45685267493E+01 0.42364581630E+01 0.39719571864E+01 0.37659644789E+01
 0.36113577870E+01 0.35033532080E+01 0.34392940733E+01 0.34180368192E+01 0.34392944986E+01
 0.35033532903E+01 0.36113568577E+01 0.37659628224E+01 0.39719560255E+01 0.42364587306E+01
 0.45685291664E+01 0.49781395554E+01 0.54748870367E+01 0.60671537503E+01 0.66060793697E+01
 0.74662699362E+01 0.84463593013E+01 0.95534117996E+01 0.10791174040E+02 0.12153549770E+02
 0.13616119008E+02 0.15129131636E+02 0.16616152155E+02 0.17980673482E+02 0.19123823636E+02
 0.19979949238E+02 0.20451541958E+02 0.20451543846E+02 0.19979951260E+02 0.19123820018E+02
 0.17980665015E+02 0.16616147189E+02 0.15129137985E+02 0.13616135593E+02 0.12153565849E+02
 0.10791176289E+02 0.95533944875E+01 0.84463309705E+01 0.74662499423E+01 0.66060835249E+01
 0.58587179206E+01 0.52175894052E+01 0.46758814249E+01 0.42255926218E+01 0.38573259474E+01
 0.35609985838E+01 0.33270575155E+01 0.31475679094E+01 0.30167716214E+01 0.29310679502E+01
 0.28885815604E+01 0.28885808517E+01 0.29310652642E+01 0.30167665269E+01 0.31475629032E+01
 0.33270588105E+01 0.35610110008E+01 0.38573448054E+01 0.42256030588E+01 0.46758705601E+01
 0.52175608569E+01 0.58586917627E+01 0.65549432063E+01 0.74662521773E+01 0.84946068708E+01
 0.96408294747E+01 0.10899620404E+02 0.12253881889E+02 0.13668458083E+02 0.15086207901E+02
 0.16429340976E+02 0.17607135483E+02 0.18528493475E+02 0.19115969596E+02 0.19317841195E+02
 0.19115969855E+02 0.18528493675E+02 0.17607135205E+02 0.16429340035E+02 0.15086206659E+02
 0.13668457466E+02 0.12253882828E+02 0.10899622855E+02 0.96408319578E+01 0.84946073711E+01
 0.74662499423E+01 0.65549396851E+01 0.57572692734E+01 0.50685847981E+01 0.44829585430E+01
 0.39928110582E+01 0.35889417920E+01 0.32612279261E+01 0.29997514206E+01 0.27958788488E+01
 0.26429241499E+01 0.25362932578E+01 0.24732244208E+01 0.24523367607E+01 0.24732241512E+01
 0.25362930507E+01 0.26429244441E+01 0.27958798330E+01 0.29997527101E+01 0.32612285575E+01
 0.35889408210E+01 0.39928085516E+01 0.44829560227E+01 0.50685842969E+01 0.57572715229E+01
 0.66060798395E+01 0.75682451203E+01 0.86425136850E+01 0.98225071645E+01 0.11093430752E+02
 0.12427720272E+02 0.13781167152E+02 0.15091745021E+02 0.16282997911E+02 0.17272315903E+02
 0.17982508046E+02 0.18353864129E+02 0.18353863400E+02 0.17982508931E+02 0.17272322144E+02
 0.16283005541E+02 0.15091743964E+02 0.13781152609E+02 0.12427700602E+02 0.11093422154E+02
 0.98225197812E+01 0.86425418392E+01 0.75682701033E+01 0.66060835249E+01 0.57572692734E+01
 0.50198232849E+01 0.43891054525E+01 0.38580658174E+01 0.34176640482E+01 0.30577201598E+01
 0.27680286909E+01 0.25393889890E+01 0.23642850639E+01 0.22371358199E+01 0.21541898964E+01
 0.21132239073E+01 0.21132237660E+01 0.21541902562E+01 0.22371385506E+01 0.23642907235E+01
 0.25393934621E+01 0.27680244048E+01 0.30577043511E+01 0.34176459278E+01 0.38580616551E+01
 0.43891233860E+01 0.50198533128E+01 0.57572900172E+01 0.67623553186E+01 0.77780934331E+01
 0.88990795734E+01 0.10111103103E+02 0.11389926696E+02 0.12698510803E+02 0.13985416395E+02
 0.15185935820E+02 0.16226985588E+02 0.17035544303E+02 0.17549026575E+02 0.17725164448E+02
 0.17549026157E+02 0.17035544304E+02 0.16226986676E+02 0.15185937588E+02 0.13985417541E+02
 0.12698510201E+02 0.11389924395E+02 0.10111100457E+02 0.88990783927E+01 0.77780946631E+01
 0.67623582049E+01 0.58587179206E+01 0.50685847981E+01 0.43891054525E+01 0.38139732931E+01
 0.33343112939E+01 0.29398045456E+01 0.26199289168E+01 0.23649833795E+01 0.21667407393E+01
 0.20187136664E+01 0.19161393361E+01 0.18558144843E+01 0.18359050617E+01 0.18558145335E+01
 0.19161394337E+01 0.20187136914E+01 0.21667404181E+01 0.23649825524E+01 0.26199279574E+01
 0.29398043638E+01 0.33343125772E+01 0.38139755689E+01 0.43891071003E+01 0.50685843274E+01
 0.58587153869E+01 0.70320913267E+01 0.81067279792E+01 0.92778464540E+01 0.10523045515E+02
 0.11809020247E+02 0.13090436253E+02 0.14310359684E+02 0.15403220577E+02 0.16300718808E+02
 0.16940058322E+02 0.17272893192E+02 0.17272891131E+02 0.16940052350E+02 0.16300711746E+02
 0.15403219548E+02 0.14310370782E+02 0.13090455855E+02 0.11809034118E+02 0.10523039830E+02
 0.92778211473E+01 0.81066990727E+01 0.70320791408E+01 0.60671552883E+01 0.52175894052E+01
 0.44829585430E+01 0.38580658174E+01 0.33343112939E+01 0.29011887689E+01 0.25477422674E+01
 0.22637084636E+01 0.20401850702E+01 0.18698725181E+01 0.17470598563E+01 0.16675256347E+01
 0.16284630327E+01 0.16284629126E+01 0.16675253885E+01 0.17470587850E+01 0.18698688758E+01
 0.20401795007E+01 0.22637067661E+01 0.25477510212E+01 0.29012063145E+01 0.33343250444E+01
 0.38580617670E+01 0.44829349658E+01 0.52175608753E+01 0.60671421573E+01 0.74282524968E+01
 0.85688913493E+01 0.97950112920E+01 0.11075920568E+02 0.12369854601E+02 0.13624417208E+02
 0.14778715345E+02 0.15767695477E+02 0.16528617953E+02 0.17008787162E+02 0.17172975349E+02
 0.17008787463E+02 0.16528617635E+02 0.15767693978E+02 0.14778713489E+02 0.13624416697E+02
 0.12369856375E+02 0.11075923685E+02 0.97950134976E+01 0.85688908917E+01 0.74282496302E+01
 0.63933001442E+01 0.54748857882E+01 0.46758814249E+01 0.39928110582E+01 0.34176640482E+01
 0.29398045456E+01 0.25477422674E+01 0.22304924319E+01 0.19783671632E+01 0.17832459114E+01
 0.16385318475E+01 0.15390324286E+01 0.14809225685E+01 0.14618232850E+01 0.14809226137E+01
 0.15390324247E+01 0.16385317202E+01 0.17832458057E+01 0.19783674599E+01 0.22304933233E+01
 0.25477432249E+01 0.29398044798E+01 0.34176623637E+01 0.39928086082E+01 0.46758801351E+01
 0.54748870204E+01 0.63933033142E+01 0.79670573577E+01 0.91814400713E+01 0.10467643850E+02
 0.11786933707E+02 0.13089899819E+02 0.14318226319E+02 0.15408177694E+02 0.16295941780E+02
 0.16924409232E+02 0.17250326450E+02 0.17250331296E+02 0.16924419319E+02 0.16295946641E+02
 0.15408168740E+02 0.14318205532E+02 0.13089881249E+02 0.11786933516E+02 0.10467665932E+02
 0.91814708360E+01 0.79670757179E+01 0.68520785029E+01 0.58533587830E+01 0.49781366794E+01
 0.42255926218E+01 0.35889417920E+01 0.30577201598E+01 0.26199289168E+01 0.22637084636E+01
 0.19783671632E+01 0.17547928686E+01 0.15854425064E+01 0.14641805547E+01 0.13861963439E+01
 0.13480943293E+01 0.13480950984E+01 0.13861975635E+01 0.14641810589E+01 0.15854436622E+01
 0.17547965655E+01 0.19783712202E+01 0.22637066152E+01 0.26199174668E+01 0.30577044212E+01
 0.35889342493E+01 0.42256029253E+01 0.49781619703E+01 0.58533833567E+01 0.68520845212E+01
 0.86667125120E+01 0.99628430914E+01 0.11314718999E+02 0.12676064613E+02 0.13990498514E+02
 0.15194349552E+02 0.16221266737E+02 0.17008474502E+02 0.17503932995E+02 0.17673120816E+02
 0.17503934023E+02 0.17008476401E+02 0.16221268753E+02 0.15194350356E+02 0.13990497160E+02
 0.12676061631E+02 0.11314716345E+02 0.99628427157E+01 0.86667147425E+01 0.74612097583E+01
 0.63696444297E+01 0.54044439806E+01 0.45685267493E+01 0.38573259474E+01 0.32612279261E+01
 0.27680286909E+01 0.23649833795E+01 0.20401850702E+01 0.17832459114E+01 0.15854425064E+01
 0.14395850025E+01 0.13398738024E+01 0.12819167563E+01 0.12629195263E+01 0.12819166185E+01
 0.13398736461E+01 0.14395850208E+01 0.15854427481E+01 0.17832460592E+01 0.20401846463E+01
 0.23649823809E+01 0.27680279391E+01 0.32612284774E+01 0.38573279432E+01 0.45685289127E+01
 0.54044444880E+01 0.63696425091E+01 0.74612065439E+01 0.95490984289E+01 0.10937683154E+02
 0.12364983329E+02 0.13777294776E+02 0.15110908779E+02 0.16295928435E+02 0.17262180186E+02
 0.17946744715E+02 0.18301914188E+02 0.18301909963E+02 0.17946738101E+02 0.17262183373E+02
 0.16295946641E+02 0.15110931899E+02 0.13777303555E+02 0.12364966734E+02 0.10937650533E+02
 0.95490730105E+01 0.82410499368E+01 0.70430789052E+01 0.59729156266E+01 0.50378367970E+01
 0.42364581630E+01 0.35609985838E+01 0.29997514206E+01 0.25393889890E+01 0.21667407393E+01
 0.18698725181E+01 0.16385318475E+01 0.14641805547E+01 0.13398738024E+01 0.12601948688E+01
 0.12213449233E+01 0.12213436171E+01 0.12601925786E+01 0.13398729894E+01 0.14641808567E+01
 0.16385306719E+01 0.18698692559E+01 0.21667389331E+01 0.25393934103E+01 0.29997628126E+01
 0.35610108554E+01 0.42364609158E+01 0.50378229649E+01 0.59728897160E+01 0.70430576518E+01
 0.82410508417E+01 0.10648331731E+02 0.12149588722E+02 0.13673701355E+02 0.15157948432E+02
 0.16528616962E+02 0.17706412415E+02 0.18614558496E+02 0.19188435427E+02 0.19384800670E+02
 0.19188433919E+02 0.18614556402E+02 0.17706411166E+02 0.16528617635E+02 0.15157950836E+02
 0.13673703916E+02 0.12149589545E+02 0.10648330105E+02 0.92190788116E+01 0.78970692393E+01
 0.67046392356E+01 0.56529219418E+01 0.47437972491E+01 0.39719571864E+01 0.33270575155E+01
 0.27958788488E+01 0.23642850639E+01 0.20187136664E+01 0.17470598563E+01 0.15390324286E+01
 0.13861963439E+01 0.12819167563E+01 0.12213449233E+01 0.12014924485E+01 0.12213449267E+01
 0.12819167401E+01 0.13861962328E+01 0.15390321939E+01 0.17470597014E+01 0.20187139832E+01
 0.23642860123E+01 0.27958799401E+01 0.33270577736E+01 0.39719559543E+01 0.47437949727E+01
 0.56529201122E+01 0.67046393373E+01 0.78970714852E+01 0.92190817803E+01 0.12028089240E+02
 0.13682355650E+02 0.15345339538E+02 0.16940067708E+02 0.18376673279E+02 0.19561118120E+02
 0.20406994299E+02 0.20847955590E+02 0.20847955307E+02 0.20406989878E+02 0.19561103900E+02
 0.18376651573E+02 0.16940052350E+02 0.15345345801E+02 0.13682384039E+02 0.12028120835E+02
 0.10442187801E+02 0.89664003383E+01 0.76268084364E+01 0.64367560942E+01 0.53998784258E+01
 0.45125747523E+01 0.37659644789E+01 0.31475679094E+01 0.26429241499E+01 0.22371358199E+01
 0.19161393361E+01 0.16675256347E+01 0.14809225685E+01 0.13480943293E+01 0.12629195263E+01
 0.12213436171E+01 0.12213449267E+01 0.12629218959E+01 0.13480952236E+01 0.14809217955E+01
 0.16675253106E+01 0.19161410231E+01 0.22371385797E+01 0.26429248726E+01 0.31475630961E+01
 0.37659535759E+01 0.45125638504E+01 0.53998788237E+01 0.64367742939E+01 0.76268356435E+01