    2    2    1    2
  0.2234237E+02  0.3983132E-09  0.3983132E-09  0.3983132E-09  0.5000000E-15
  1.000000000000000E-004
  CAR 
 unknown system                          
     28     16     54
 
  0.0000000E+00  0.0000000E+00  0.0000000E+00  0.4629630E-02
    1      -19.706113    -19.706108   1.000000   1.000000
    2      -19.706111    -19.706106   1.000000   1.000000
    3      -19.706111    -19.706106   1.000000   1.000000
    4      -19.669873    -19.669868   1.000000   1.000000
    5      -19.669873    -19.669868   1.000000   1.000000
    6      -19.451448    -19.451443   1.000000   1.000000
    7      -19.451446    -19.451441   1.000000   1.000000
    8      -19.451446    -19.451441   1.000000   1.000000
    9      -19.437291    -19.437286   1.000000   1.000000
   10      -19.437291    -19.437286   1.000000   1.000000
   11       -7.744777     -7.744780   1.000000   1.000000
   12        5.128953      5.128948   0.992548   0.992569
   13        5.128954      5.128949   0.992522   0.992565
   14        5.128956      5.128950   0.992494   0.992561
   15        5.285553      5.285558   0.022162   0.022233
   16        7.685835      7.685835   0.000000   0.000000
   17        7.685836      7.685837   0.000000   0.000000
   18        7.685837      7.685838   0.000000   0.000000
   19       11.590175     11.590167   0.000000   0.000000
   20       14.643820     14.643816   0.000000   0.000000
   21       14.643820     14.643816   0.000000   0.000000
   22       15.953401     15.953396   0.000000   0.000000
   23       15.953414     15.953410   0.000000   0.000000
   24       15.953415     15.953410   0.000000   0.000000
   25       19.027436     19.027433   0.000000   0.000000
   26       30.611480     30.611472   0.000000   0.000000
   27       30.611484     30.611484   0.000000   0.000000
   28       30.611490     30.611490   0.000000   0.000000
   29       31.262974     31.262964   0.000000   0.000000
   30       31.262998     31.262992   0.000000   0.000000
   31       31.263007     31.262993   0.000000   0.000000
   32       31.832323     31.832320   0.000000   0.000000
   33       31.832325     31.832323   0.000000   0.000000
   34       31.832328     31.832327   0.000000   0.000000
   35       32.866231     32.866226   0.000000   0.000000
   36       32.866317     32.866234   0.000000   0.000000
   37       39.877018     39.869748   0.000000   0.000000
   38       44.262655     44.171409   0.000000   0.000000
   39       44.784372     44.729889   0.000000   0.000000
   40       44.864447     44.796310   0.000000   0.000000
   41       45.043292     44.905588   0.000000   0.000000
   42       45.155777     45.201913   0.000000   0.000000
   43       45.393796     45.308963   0.000000   0.000000
   44       45.745864     45.409682   0.000000   0.000000
   45       46.118909     46.041113   0.000000   0.000000
   46       46.230730     46.086572   0.000000   0.000000
   47       46.371443     46.288753   0.000000   0.000000
   48       46.553824     46.566959   0.000000   0.000000
   49       46.698300     46.629482   0.000000   0.000000
   50       46.930622     46.677428   0.000000   0.000000
   51       47.103912     47.161567   0.000000   0.000000
   52       47.497197     47.411257   0.000000   0.000000
   53       47.643866     47.623647   0.000000   0.000000
   54       47.829643     47.721197   0.000000   0.000000
 
  0.1666667E+00  0.0000000E+00  0.0000000E+00  0.3703704E-01
    1      -19.718655    -19.718650   1.000000   1.000000
    2      -19.718653    -19.718648   1.000000   1.000000
    3      -19.701928    -19.701923   1.000000   1.000000
    4      -19.651677    -19.651671   1.000000   1.000000
    5      -19.651676    -19.651671   1.000000   1.000000
    6      -19.468967    -19.468962   1.000000   1.000000
    7      -19.468967    -19.468961   1.000000   1.000000
    8      -19.456665    -19.456659   1.000000   1.000000
    9      -19.422850    -19.422845   1.000000   1.000000
   10      -19.422849    -19.422844   1.000000   1.000000
   11       -7.404089     -7.404092   1.000000   1.000000
   12        1.966619      1.966618   1.000000   1.000000
   13        4.597617      4.597612   1.000000   1.000000
   14        4.597619      4.597615   1.000000   1.000000
   15        6.141882      6.141884   0.000000   0.000000
   16        8.388181      8.388180   0.000000   0.000000
   17        8.388192      8.388193   0.000000   0.000000
   18        9.349965      9.349964   0.000000   0.000000
   19       12.996286     12.996281   0.000000   0.000000
   20       13.497670     13.497666   0.000000   0.000000
   21       13.497670     13.497666   0.000000   0.000000
   22       15.162268     15.162264   0.000000   0.000000
   23       18.424109     18.424105   0.000000   0.000000
   24       18.424110     18.424106   0.000000   0.000000
   25       21.298095     21.298093   0.000000   0.000000
   26       26.008914     26.008911   0.000000   0.000000
   27       26.008917     26.008913   0.000000   0.000000
   28       26.246352     26.246348   0.000000   0.000000
   29       31.164969     31.164974   0.000000   0.000000
   30       31.164981     31.164980   0.000000   0.000000
   31       31.544776     31.544768   0.000000   0.000000
   32       32.622409     32.622407   0.000000   0.000000
   33       32.622414     32.622435   0.000000   0.000000
   34       35.042482     35.042517   0.000000   0.000000
   35       38.112582     38.112501   0.000000   0.000000
   36       38.113097     38.116172   0.000000   0.000000
   37       38.150059     38.146802   0.000000   0.000000
   38       39.167223     39.166293   0.000000   0.000000
   39       39.167472     39.169774   0.000000   0.000000
   40       41.721431     41.713652   0.000000   0.000000
   41       41.873298     41.870397   0.000000   0.000000
   42       41.905244     41.886189   0.000000   0.000000
   43       42.617712     42.620933   0.000000   0.000000
   44       42.627320     42.647200   0.000000   0.000000
   45       42.649488     42.687955   0.000000   0.000000
   46       42.715979     42.789458   0.000000   0.000000
   47       44.903581     44.851795   0.000000   0.000000
   48       45.860695     45.888532   0.000000   0.000000
   49       45.949461     45.984411   0.000000   0.000000
   50       46.156935     46.323686   0.000000   0.000000
   51       47.969756     47.556607   0.000000   0.000000
   52       48.289377     47.995252   0.000000   0.000000
   53       49.540861     48.564709   0.000000   0.000000
   54       50.820579     50.902801   0.000000   0.000000
 
  0.3333333E+00  0.0000000E+00  0.0000000E+00  0.3703704E-01
    1      -19.729201    -19.729196   1.000000   1.000000
    2      -19.729198    -19.729193   1.000000   1.000000
    3      -19.692911    -19.692906   1.000000   1.000000
    4      -19.631944    -19.631939   1.000000   1.000000
    5      -19.631943    -19.631938   1.000000   1.000000
    6      -19.483650    -19.483644   1.000000   1.000000
    7      -19.483649    -19.483643   1.000000   1.000000
    8      -19.467329    -19.467324   1.000000   1.000000
    9      -19.412143    -19.412138   1.000000   1.000000
   10      -19.412141    -19.412136   1.000000   1.000000
   11       -6.458376     -6.458379   1.000000   1.000000
   12       -0.995592     -0.995594   1.000000   1.000000
   13        3.943685      3.943680   1.000000   1.000000
   14        3.943686      3.943682   1.000000   1.000000
   15        5.582030      5.582031   0.000000   0.000000
   16        8.919049      8.919056   0.000000   0.000000
   17        8.919068      8.919061   0.000000   0.000000
   18       12.233404     12.233403   0.000000   0.000000
   19       13.031911     13.031905   0.000000   0.000000
   20       14.136510     14.136503   0.000000   0.000000
   21       14.136512     14.136510   0.000000   0.000000
   22       17.662152     17.662150   0.000000   0.000000
   23       21.079401     21.079398   0.000000   0.000000
   24       21.079403     21.079401   0.000000   0.000000
   25       22.202531     22.202526   0.000000   0.000000
   26       22.464190     22.464184   0.000000   0.000000
   27       22.464192     22.464187   0.000000   0.000000
   28       25.565304     25.565300   0.000000   0.000000
   29       31.462243     31.462242   0.000000   0.000000
   30       32.066314     32.066309   0.000000   0.000000
   31       32.066316     32.066314   0.000000   0.000000
   32       32.254411     32.254400   0.000000   0.000000
   33       32.854190     32.854189   0.000000   0.000000
   34       32.854197     32.854191   0.000000   0.000000
   35       33.434403     33.434401   0.000000   0.000000
   36       33.434408     33.434410   0.000000   0.000000
   37       36.386554     36.386566   0.000000   0.000000
   38       38.029551     38.029564   0.000000   0.000000
   39       38.962004     38.962007   0.000000   0.000000
   40       38.962876     38.962297   0.000000   0.000000
   41       39.303700     39.303726   0.000000   0.000000
   42       39.303701     39.305357   0.000000   0.000000
   43       39.710775     39.711167   0.000000   0.000000
   44       40.930403     40.929627   0.000000   0.000000
   45       44.063310     44.066009   0.000000   0.000000
   46       44.910364     44.919211   0.000000   0.000000
   47       45.004385     44.963676   0.000000   0.000000
   48       45.854439     45.863531   0.000000   0.000000
   49       45.870766     45.910998   0.000000   0.000000
   50       47.165194     47.175033   0.000000   0.000000
   51       47.225156     47.253154   0.000000   0.000000
   52       47.594925     47.541805   0.000000   0.000000
   53       48.805447     48.802359   0.000000   0.000000
   54       52.982841     53.037190   0.000000   0.000000
 
  0.5000000E+00  0.0000000E+00  0.0000000E+00  0.1851852E-01
    1      -19.731687    -19.731682   1.000000   1.000000
    2      -19.731684    -19.731679   1.000000   1.000000
    3      -19.688120    -19.688116   1.000000   1.000000
    4      -19.626447    -19.626442   1.000000   1.000000
    5      -19.626445    -19.626440   1.000000   1.000000
    6      -19.486982    -19.486976   1.000000   1.000000
    7      -19.486980    -19.486975   1.000000   1.000000
    8      -19.472847    -19.472842   1.000000   1.000000
    9      -19.409373    -19.409368   1.000000   1.000000
   10      -19.409370    -19.409365   1.000000   1.000000
   11       -5.622658     -5.622661   1.000000   1.000000
   12       -2.529985     -2.529988   1.000000   1.000000
   13        3.702619      3.702614   1.000000   1.000000
   14        3.702621      3.702617   1.000000   1.000000
   15        5.353835      5.353835   0.000042   0.000044
   16        8.881673      8.881678   0.000000   0.000000
   17        8.881692      8.881685   0.000000   0.000000
   18       12.269161     12.269158   0.000000   0.000000
   19       15.788302     15.788297   0.000000   0.000000
   20       16.380181     16.380183   0.000000   0.000000
   21       16.421358     16.421356   0.000000   0.000000
   22       16.421363     16.421359   0.000000   0.000000
   23       17.670938     17.670931   0.000000   0.000000
   24       17.670938     17.670936   0.000000   0.000000
   25       24.027402     24.027397   0.000000   0.000000
   26       26.247371     26.247367   0.000000   0.000000
   27       26.863322     26.863315   0.000000   0.000000
   28       26.863328     26.863328   0.000000   0.000000
   29       27.611437     27.611436   0.000000   0.000000
   30       27.611443     27.611437   0.000000   0.000000
   31       30.681013     30.681011   0.000000   0.000000
   32       31.280385     31.280380   0.000000   0.000000
   33       32.742442     32.742432   0.000000   0.000000
   34       32.784920     32.784921   0.000000   0.000000
   35       32.784938     32.784929   0.000000   0.000000
   36       34.018305     34.018305   0.000000   0.000000
   37       34.018315     34.018308   0.000000   0.000000
   38       37.700186     37.700108   0.000000   0.000000
   39       37.700233     37.700131   0.000000   0.000000
   40       37.783573     37.783555   0.000000   0.000000
   41       37.783818     37.783571   0.000000   0.000000
   42       38.462322     38.462234   0.000000   0.000000
   43       38.527902     38.527572   0.000000   0.000000
   44       39.478501     39.477485   0.000000   0.000000
   45       43.684918     43.685108   0.000000   0.000000
   46       45.759681     45.753292   0.000000   0.000000
   47       45.783913     45.778147   0.000000   0.000000
   48       46.344193     46.350251   0.000000   0.000000
   49       46.402792     46.378493   0.000000   0.000000
   50       47.603593     47.645962   0.000000   0.000000
   51       52.418619     52.400728   0.000000   0.000000
   52       53.138529     53.098663   0.000000   0.000000
   53       53.873972     54.090920   0.000000   0.000000
   54       54.436881     55.079157   0.000000   0.000000
 
  0.1666667E+00  0.1666667E+00  0.0000000E+00  0.2777778E-01
    1      -19.716145    -19.716140   1.000000   1.000000
    2      -19.716143    -19.716139   1.000000   1.000000
    3      -19.716001    -19.715996   1.000000   1.000000
    4      -19.653596    -19.653591   1.000000   1.000000
    5      -19.630738    -19.630733   1.000000   1.000000
    6      -19.504079    -19.504074   1.000000   1.000000
    7      -19.452242    -19.452236   1.000000   1.000000
    8      -19.436358    -19.436354   1.000000   1.000000
    9      -19.436357    -19.436352   1.000000   1.000000
   10      -19.420115    -19.420110   1.000000   1.000000
   11       -7.287222     -7.287225   1.000000   1.000000
   12        1.979151      1.979150   1.000000   1.000000
   13        3.817125      3.817121   1.000000   1.000000
   14        3.817129      3.817125   1.000000   1.000000
   15        6.703299      6.703298   0.000000   0.000000
   16        7.951917      7.951918   0.000000   0.000000
   17        9.570777      9.570778   0.000000   0.000000
   18        9.570780      9.570778   0.000000   0.000000
   19       12.019922     12.019917   0.000000   0.000000
   20       13.591814     13.591809   0.000000   0.000000
   21       15.119555     15.119552   0.000000   0.000000
   22       16.904638     16.904634   0.000000   0.000000
   23       16.904645     16.904640   0.000000   0.000000
   24       17.806846     17.806843   0.000000   0.000000
   25       22.721275     22.721276   0.000000   0.000000
   26       25.623742     25.623738   0.000000   0.000000
   27       25.623742     25.623746   0.000000   0.000000
   28       26.674314     26.674309   0.000000   0.000000
   29       27.043560     27.043561   0.000000   0.000000
   30       31.469061     31.469049   0.000000   0.000000
   31       31.469077     31.469098   0.000000   0.000000
   32       32.275581     32.275585   0.000000   0.000000
   33       35.036379     35.036349   0.000000   0.000000
   34       37.636658     37.639591   0.000000   0.000000
   35       37.683426     37.685808   0.000000   0.000000
   36       37.683595     37.688411   0.000000   0.000000
   37       38.039350     38.041150   0.000000   0.000000
   38       38.042080     38.041832   0.000000   0.000000
   39       38.357789     38.360266   0.000000   0.000000
   40       38.919492     38.924786   0.000000   0.000000
   41       41.543402     41.555255   0.000000   0.000000
   42       42.223731     42.246555   0.000000   0.000000
   43       42.246510     42.344633   0.000000   0.000000
   44       42.966185     43.038989   0.000000   0.000000
   45       43.632303     43.716633   0.000000   0.000000
   46       43.726845     43.868535   0.000000   0.000000
   47       44.531437     44.489088   0.000000   0.000000
   48       44.795997     44.596212   0.000000   0.000000
   49       45.074201     45.268048   0.000000   0.000000
   50       48.396732     48.277290   0.000000   0.000000
   51       48.667424     48.747341   0.000000   0.000000
   52       49.084730     49.671904   0.000000   0.000000
   53       49.859101     49.900273   0.000000   0.000000
   54       50.899136     51.157914   0.000000   0.000000
 
  0.3333333E+00  0.1666667E+00  0.0000000E+00  0.1111111E+00
    1      -19.737160    -19.737155   1.000000   1.000000
    2      -19.726813    -19.726808   1.000000   1.000000
    3      -19.695675    -19.695670   1.000000   1.000000
    4      -19.632261    -19.632255   1.000000   1.000000
    5      -19.604343    -19.604338   1.000000   1.000000
    6      -19.530357    -19.530351   1.000000   1.000000
    7      -19.474902    -19.474897   1.000000   1.000000
    8      -19.450186    -19.450181   1.000000   1.000000
    9      -19.418086    -19.418081   1.000000   1.000000
   10      -19.404132    -19.404126   1.000000   1.000000
   11       -6.520921     -6.520923   1.000000   1.000000
   12       -0.302940     -0.302942   1.000000   1.000000
   13        2.813041      2.813037   1.000000   1.000000
   14        3.196834      3.196830   1.000000   1.000000
   15        6.910605      6.910604   0.000000   0.000000
   16        8.296657      8.296658   0.000000   0.000000
   17       10.083598     10.083595   0.000000   0.000000
   18       10.448110     10.448110   0.000000   0.000000
   19       13.691407     13.691405   0.000000   0.000000
   20       14.909335     14.909331   0.000000   0.000000
   21       15.456629     15.456625   0.000000   0.000000
   22       17.253682     17.253679   0.000000   0.000000
   23       19.745826     19.745823   0.000000   0.000000
   24       21.058345     21.058339   0.000000   0.000000
   25       21.384878     21.384876   0.000000   0.000000
   26       21.573253     21.573246   0.000000   0.000000
   27       25.863804     25.863812   0.000000   0.000000
   28       26.617265     26.617261   0.000000   0.000000
   29       26.897033     26.897029   0.000000   0.000000
   30       28.332348     28.332342   0.000000   0.000000
   31       31.341194     31.341194   0.000000   0.000000
   32       32.203740     32.203737   0.000000   0.000000
   33       34.368400     34.368401   0.000000   0.000000
   34       34.399264     34.399265   0.000000   0.000000
   35       34.633023     34.633017   0.000000   0.000000
   36       35.742442     35.742727   0.000000   0.000000
   37       37.213475     37.213197   0.000000   0.000000
   38       37.519464     37.520195   0.000000   0.000000
   39       38.710469     38.707360   0.000000   0.000000
   40       39.260447     39.258641   0.000000   0.000000
   41       39.955238     39.966283   0.000000   0.000000
   42       40.087958     40.086569   0.000000   0.000000
   43       40.894989     40.887555   0.000000   0.000000
   44       41.835428     41.841157   0.000000   0.000000
   45       43.090040     43.066793   0.000000   0.000000
   46       44.071493     44.061996   0.000000   0.000000
   47       44.977483     44.992668   0.000000   0.000000
   48       46.540575     46.464748   0.000000   0.000000
   49       46.804097     46.824166   0.000000   0.000000
   50       47.097710     47.532129   0.000000   0.000000
   51       48.527188     48.491153   0.000000   0.000000
   52       49.007379     49.130491   0.000000   0.000000
   53       49.707344     49.875105   0.000000   0.000000
   54       51.117209     51.236218   0.000000   0.000000
 
  0.5000000E+00  0.1666667E+00  0.0000000E+00  0.1111111E+00
    1      -19.748741    -19.748736   1.000000   1.000000
    2      -19.735226    -19.735221   1.000000   1.000000
    3      -19.671179    -19.671174   1.000000   1.000000
    4      -19.612491    -19.612486   1.000000   1.000000
    5      -19.603730    -19.603725   1.000000   1.000000
    6      -19.524978    -19.524973   1.000000   1.000000
    7      -19.497639    -19.497633   1.000000   1.000000
    8      -19.477697    -19.477692   1.000000   1.000000
    9      -19.404837    -19.404832   1.000000   1.000000
   10      -19.391556    -19.391551   1.000000   1.000000
   11       -5.447007     -5.447010   1.000000   1.000000
   12       -2.319922     -2.319925   1.000000   1.000000
   13        1.974402      1.974399   1.000000   1.000000
   14        3.129808      3.129804   1.000000   1.000000
   15        6.770114      6.770114   0.000000   0.000000
   16        8.946481      8.946481   0.000000   0.000000
   17       10.130586     10.130585   0.000000   0.000000
   18       11.587504     11.587502   0.000000   0.000000
   19       14.424033     14.424029   0.000000   0.000000
   20       16.246289     16.246285   0.000000   0.000000
   21       16.438368     16.438365   0.000000   0.000000
   22       17.123762     17.123761   0.000000   0.000000
   23       18.220217     18.220213   0.000000   0.000000
   24       21.694875     21.694871   0.000000   0.000000
   25       23.312329     23.312324   0.000000   0.000000
   26       24.146558     24.146554   0.000000   0.000000
   27       25.534131     25.534127   0.000000   0.000000
   28       26.432019     26.432016   0.000000   0.000000
   29       27.689013     27.689009   0.000000   0.000000
   30       28.575300     28.575296   0.000000   0.000000
   31       28.972710     28.972706   0.000000   0.000000
   32       31.131308     31.131306   0.000000   0.000000
   33       31.188852     31.188849   0.000000   0.000000
   34       32.523386     32.523381   0.000000   0.000000
   35       32.789502     32.789498   0.000000   0.000000
   36       33.011177     33.011166   0.000000   0.000000
   37       34.215757     34.215762   0.000000   0.000000
   38       35.890043     35.890106   0.000000   0.000000
   39       37.461064     37.461576   0.000000   0.000000
   40       38.166847     38.167812   0.000000   0.000000
   41       38.888520     38.887549   0.000000   0.000000
   42       39.575736     39.575822   0.000000   0.000000
   43       41.644760     41.647330   0.000000   0.000000
   44       42.708740     42.713036   0.000000   0.000000
   45       42.793014     42.788941   0.000000   0.000000
   46       44.561388     44.595214   0.000000   0.000000
   47       44.918375     44.938685   0.000000   0.000000
   48       47.390598     47.472231   0.000000   0.000000
   49       49.026925     48.927399   0.000000   0.000000
   50       50.123103     50.205630   0.000000   0.000000
   51       50.423634     50.796120   0.000000   0.000000
   52       51.167687     51.171485   0.000000   0.000000
   53       51.966830     52.001809   0.000000   0.000000
   54       54.217453     53.447714   0.000000   0.000000
 
 -0.3333333E+00  0.1666667E+00  0.0000000E+00  0.1111111E+00
    1      -19.745234    -19.745230   1.000000   1.000000
    2      -19.738720    -19.738716   1.000000   1.000000
    3      -19.666943    -19.666938   1.000000   1.000000
    4      -19.624762    -19.624757   1.000000   1.000000
    5      -19.604298    -19.604292   1.000000   1.000000
    6      -19.511329    -19.511324   1.000000   1.000000
    7      -19.494354    -19.494349   1.000000   1.000000
    8      -19.487001    -19.486995   1.000000   1.000000
    9      -19.399812    -19.399807   1.000000   1.000000
   10      -19.397027    -19.397021   1.000000   1.000000
   11       -5.785900     -5.785901   1.000000   1.000000
   12       -1.773430     -1.773432   1.000000   1.000000
   13        1.763249      1.763246   1.000000   1.000000
   14        3.624943      3.624939   1.000000   1.000000
   15        6.917826      6.917827   0.000000   0.000000
   16        9.202788      9.202787   0.000000   0.000000
   17        9.598196      9.598198   0.000000   0.000000
   18       11.940685     11.940685   0.000000   0.000000
   19       13.499890     13.499885   0.000000   0.000000
   20       14.323093     14.323090   0.000000   0.000000
   21       16.224595     16.224591   0.000000   0.000000
   22       18.048972     18.048972   0.000000   0.000000
   23       19.839276     19.839271   0.000000   0.000000
   24       21.635577     21.635575   0.000000   0.000000
   25       21.827554     21.827551   0.000000   0.000000
   26       23.324830     23.324827   0.000000   0.000000
   27       26.071554     26.071553   0.000000   0.000000
   28       27.473217     27.473212   0.000000   0.000000
   29       28.074806     28.074805   0.000000   0.000000
   30       28.560254     28.560249   0.000000   0.000000
   31       29.329880     29.329877   0.000000   0.000000
   32       29.456321     29.456318   0.000000   0.000000
   33       32.227780     32.227774   0.000000   0.000000
   34       32.654299     32.654293   0.000000   0.000000
   35       32.987970     32.987963   0.000000   0.000000
   36       33.332606     33.332601   0.000000   0.000000
   37       35.209268     35.209297   0.000000   0.000000
   38       37.069969     37.069927   0.000000   0.000000
   39       38.322695     38.323025   0.000000   0.000000
   40       38.959323     38.958345   0.000000   0.000000
   41       39.324558     39.324671   0.000000   0.000000
   42       39.400538     39.400563   0.000000   0.000000
   43       41.631942     41.633596   0.000000   0.000000
   44       41.877447     41.879242   0.000000   0.000000
   45       42.018996     42.019585   0.000000   0.000000
   46       44.828722     44.802101   0.000000   0.000000
   47       44.976316     44.973402   0.000000   0.000000
   48       45.921692     45.967176   0.000000   0.000000
   49       46.456320     46.438345   0.000000   0.000000
   50       48.302908     48.300956   0.000000   0.000000
   51       50.979041     50.599454   0.000000   0.000000
   52       51.977429     51.822211   0.000000   0.000000
   53       53.037498     53.234948   0.000000   0.000000
   54       53.899853     54.358081   0.000000   0.000000
 
 -0.1666667E+00  0.1666667E+00  0.0000000E+00  0.5555556E-01
    1      -19.733032    -19.733027   1.000000   1.000000
    2      -19.728197    -19.728192   1.000000   1.000000
    3      -19.689679    -19.689674   1.000000   1.000000
    4      -19.642244    -19.642238   1.000000   1.000000
    5      -19.623437    -19.623432   1.000000   1.000000
    6      -19.497818    -19.497813   1.000000   1.000000
    7      -19.482958    -19.482953   1.000000   1.000000
    8      -19.453509    -19.453503   1.000000   1.000000
    9      -19.420274    -19.420269   1.000000   1.000000
   10      -19.405728    -19.405722   1.000000   1.000000
   11       -6.850800     -6.850803   1.000000   1.000000
   12        0.411093      0.411091   1.000000   1.000000
   13        2.543009      2.543005   1.000000   1.000000
   14        4.423823      4.423818   1.000000   1.000000
   15        7.117881      7.117883   0.000000   0.000000
   16        8.706444      8.706445   0.000000   0.000000
   17        8.937406      8.937402   0.000000   0.000000
   18       10.304701     10.304700   0.000000   0.000000
   19       12.457850     12.457845   0.000000   0.000000
   20       14.566441     14.566438   0.000000   0.000000
   21       14.574561     14.574558   0.000000   0.000000
   22       17.041878     17.041875   0.000000   0.000000
   23       18.242849     18.242844   0.000000   0.000000
   24       21.014212     21.014209   0.000000   0.000000
   25       21.792889     21.792886   0.000000   0.000000
   26       24.046356     24.046357   0.000000   0.000000
   27       25.711315     25.711313   0.000000   0.000000
   28       26.356041     26.356041   0.000000   0.000000
   29       26.708520     26.708512   0.000000   0.000000
   30       28.376476     28.376470   0.000000   0.000000
   31       31.785726     31.785722   0.000000   0.000000
   32       33.869348     33.869345   0.000000   0.000000
   33       34.813596     34.813617   0.000000   0.000000
   34       35.134671     35.134672   0.000000   0.000000
   35       35.744795     35.744676   0.000000   0.000000
   36       35.916297     35.916339   0.000000   0.000000
   37       38.242685     38.241608   0.000000   0.000000
   38       38.644194     38.643757   0.000000   0.000000
   39       39.055923     39.056994   0.000000   0.000000
   40       39.433556     39.429929   0.000000   0.000000
   41       39.646809     39.645062   0.000000   0.000000
   42       40.631629     40.630647   0.000000   0.000000
   43       41.512994     41.515296   0.000000   0.000000
   44       41.583411     41.589657   0.000000   0.000000
   45       42.205427     42.208459   0.000000   0.000000
   46       42.291051     42.296712   0.000000   0.000000
   47       44.275008     44.283050   0.000000   0.000000
   48       44.422627     44.356563   0.000000   0.000000
   49       46.876600     46.773527   0.000000   0.000000
   50       47.159106     47.143583   0.000000   0.000000
   51       47.683417     47.813094   0.000000   0.000000
   52       48.655177     48.841156   0.000000   0.000000
   53       49.521600     49.628465   0.000000   0.000000
   54       51.847276     51.569224   0.000000   0.000000
 
  0.3333333E+00  0.3333333E+00  0.0000000E+00  0.2777778E-01
    1      -19.733450    -19.733445   1.000000   1.000000
    2      -19.733448    -19.733444   1.000000   1.000000
    3      -19.701796    -19.701792   1.000000   1.000000
    4      -19.609549    -19.609544   1.000000   1.000000
    5      -19.581012    -19.581007   1.000000   1.000000
    6      -19.561830    -19.561825   1.000000   1.000000
    7      -19.493251    -19.493246   1.000000   1.000000
    8      -19.438552    -19.438547   1.000000   1.000000
    9      -19.408087    -19.408081   1.000000   1.000000
   10      -19.408085    -19.408080   1.000000   1.000000
   11       -5.941942     -5.941944   1.000000   1.000000
   12       -1.082039     -1.082041   1.000000   1.000000
   13        2.483398      2.483394   1.000000   1.000000
   14        2.483402      2.483398   1.000000   1.000000
   15        5.775061      5.775059   0.000000   0.000000
   16        7.098009      7.098007   0.000000   0.000000
   17       12.523472     12.523473   0.000000   0.000000