<?xml version="1.0" encoding="ISO-8859-1"?>
<modeling>
 <generator>
  <i name="program" type="string">vasp </i>
  <i name="version" type="string">5.4.4.18Apr17-6-g9f103f2a35  </i>
  <i name="subversion" type="string">(build Sep 01 2023 15:42:28) complex            parallel </i>
  <i name="platform" type="string">LinuxIFC </i>
  <i name="date" type="string">2023 11 23 </i>
  <i name="time" type="string">00:49:56 </i>
 </generator>
 <incar>
  <i type="int" name="ISTART">     0</i>
  <i type="string" name="PREC">n</i>
  <i type="string" name="ALGO"> D</i>
  <i type="int" name="ISPIN">     2</i>
  <i type="int" name="ICHARG">     2</i>
  <i name="ENCUT">    450.00000000</i>
  <i type="int" name="NBANDS">    54</i>
  <v name="MAGMOM">      0.00000000      0.00000000      0.00000000      0.00000000      0.00000000      0.00000000</v>
  <i type="int" name="ISMEAR">     0</i>
  <i name="SIGMA">      0.05000000</i>
  <i type="int" name="LMAXMIX">     2</i>
  <i type="int" name="LORBIT">    11</i>
  <v type="int" name="KPOINT_BSE">    -1     0     0     0</v>
  <i type="string" name="GGA"> Pe</i>
  <i type="logical" name="LDAU"> T  </i>
  <v type="int" name="LDAUL">     1    -1</v>
  <v name="LDAUU">      0.00000000      0.00000000</v>
  <v name="LDAUJ">      0.00000000      0.00000000</v>
 </incar>
 <structure name="primitive_cell" >
  <crystal>
   <varray name="basis" >
    <v>       0.00000000       2.81650000       2.81650000 </v>
    <v>       2.81650000       0.00000000       2.81650000 </v>
    <v>       2.81650000       2.81650000       0.00000000 </v>
   </varray>
   <i name="volume">     44.68474278 </i>
   <varray name="rec_basis" >
    <v>      -0.17752530       0.17752530       0.17752530 </v>
    <v>       0.17752530      -0.17752530       0.17752530 </v>
    <v>       0.17752530       0.17752530      -0.17752530 </v>
   </varray>
  </crystal>
  <varray name="positions" >
   <v>       0.00000000       0.00000000       0.00000000 </v>
   <v>       0.25000000       0.25000000       0.25000000 </v>
  </varray>
 </structure>
 <varray name="primitive_index" >
  <v type="int" >        1 </v>
  <v type="int" >        2 </v>
 </varray>
 <kpoints>
  <generation param="Gamma">
   <v type="int" name="divisions">       6        6        6 </v>
   <v name="usershift">      0.00000000       0.00000000       0.00000000 </v>
   <v name="genvec1">      0.16666667       0.00000000       0.00000000 </v>
   <v name="genvec2">      0.00000000       0.16666667       0.00000000 </v>
   <v name="genvec3">      0.00000000       0.00000000       0.16666667 </v>
   <v name="shift">      0.00000000       0.00000000       0.00000000 </v>
  </generation>
  <varray name="kpointlist" >
   <v>       0.00000000       0.00000000       0.00000000 </v>
   <v>       0.16666667       0.00000000       0.00000000 </v>
   <v>       0.33333333       0.00000000       0.00000000 </v>
   <v>       0.50000000       0.00000000       0.00000000 </v>
   <v>       0.16666667       0.16666667       0.00000000 </v>
   <v>       0.33333333       0.16666667       0.00000000 </v>
   <v>       0.50000000       0.16666667       0.00000000 </v>
   <v>      -0.33333333       0.16666667       0.00000000 </v>
   <v>      -0.16666667       0.16666667       0.00000000 </v>
   <v>       0.33333333       0.33333333       0.00000000 </v>
   <v>       0.50000000       0.33333333       0.00000000 </v>
   <v>      -0.33333333       0.33333333       0.00000000 </v>
   <v>       0.50000000       0.50000000       0.00000000 </v>
   <v>       0.50000000       0.33333333       0.16666667 </v>
   <v>      -0.33333333       0.33333333       0.16666667 </v>
   <v>      -0.33333333       0.50000000       0.16666667 </v>
  </varray>
  <varray name="weights" >
   <v>       0.00462963 </v>
   <v>       0.03703704 </v>
   <v>       0.03703704 </v>
   <v>       0.01851852 </v>
   <v>       0.02777778 </v>
   <v>       0.11111111 </v>
   <v>       0.11111111 </v>
   <v>       0.11111111 </v>
   <v>       0.05555556 </v>
   <v>       0.02777778 </v>
   <v>       0.11111111 </v>
   <v>       0.05555556 </v>
   <v>       0.01388889 </v>
   <v>       0.11111111 </v>
   <v>       0.11111111 </v>
   <v>       0.05555556 </v>
  </varray>
 </kpoints>
 <parameters>
  <separator name="general" >
   <i type="string" name="SYSTEM">unknown system</i>
   <i type="logical" name="LCOMPAT"> F  </i>
  </separator>
  <separator name="electronic" >
   <i type="string" name="PREC">n</i>
   <i name="ENMAX">    450.00000000</i>
   <i name="ENAUG">    531.35600000</i>
   <i name="EDIFF">      0.00010000</i>
   <i type="int" name="IALGO">    53</i>
   <i type="int" name="IWAVPR">    10</i>
   <i type="int" name="NBANDS">    54</i>
   <i name="NELECT">     28.00000000</i>
   <i type="int" name="TURBO">     0</i>
   <i type="int" name="IRESTART">     0</i>
   <i type="int" name="NREBOOT">     0</i>
   <i type="int" name="NMIN">     0</i>
   <i name="EREF">      0.00000000</i>
   <separator name="electronic smearing" >
    <i type="int" name="ISMEAR">     0</i>
    <i name="SIGMA">      0.05000000</i>
    <i name="KSPACING">      0.50000000</i>
    <i type="logical" name="KGAMMA"> T  </i>
   </separator>
   <separator name="electronic projectors" >
    <i type="logical" name="LREAL"> F  </i>
    <v name="ROPT">      0.00000000</v>
    <i type="int" name="LMAXPAW">  -100</i>
    <i type="int" name="LMAXMIX">     2</i>
    <i type="logical" name="NLSPLINE"> F  </i>
   </separator>
   <separator name="electronic startup" >
    <i type="int" name="ISTART">     0</i>
    <i type="int" name="ICHARG">     2</i>
    <i type="int" name="INIWAV">     1</i>
   </separator>
   <separator name="electronic spin" >
    <i type="int" name="ISPIN">     2</i>
    <i type="logical" name="LNONCOLLINEAR"> F  </i>
    <v name="MAGMOM">      0.00000000      0.00000000</v>
    <i name="NUPDOWN">     -1.00000000</i>
    <i type="logical" name="LSORBIT"> F  </i>
    <v name="SAXIS">      0.00000000      0.00000000      1.00000000</v>
    <i type="logical" name="LSPIRAL"> F  </i>
    <v name="QSPIRAL">      0.00000000      0.00000000      0.00000000</v>
    <i type="logical" name="LZEROZ"> F  </i>
   </separator>
   <separator name="electronic exchange-correlation" >
    <i type="logical" name="LASPH"> F  </i>
    <i type="logical" name="LMETAGGA"> F  </i>
   </separator>
   <separator name="electronic convergence" >
    <i type="int" name="NELM">    60</i>
    <i type="int" name="NELMDL">    -5</i>
    <i type="int" name="NELMIN">     2</i>
    <i name="ENINI">    450.00000000</i>
    <separator name="electronic convergence detail" >
     <i type="logical" name="LDIAG"> T  </i>
     <i type="logical" name="LSUBROT"> F  </i>
     <i name="WEIMIN">      0.00000000</i>
     <i name="EBREAK">      0.00000046</i>
     <i name="DEPER">      0.30000000</i>
     <i type="int" name="NRMM">     4</i>
     <i name="TIME">      0.40000000</i>
    </separator>
   </separator>
   <separator name="electronic mixer" >
    <i name="AMIX">      0.40000000</i>
    <i name="BMIX">      1.00000000</i>
    <i name="AMIN">      0.10000000</i>
    <i name="AMIX_MAG">      1.60000000</i>
    <i name="BMIX_MAG">      1.00000000</i>
    <separator name="electronic mixer details" >
     <i type="int" name="IMIX">     4</i>
     <i type="logical" name="MIXFIRST"> F  </i>
     <i type="int" name="MAXMIX">   -45</i>
     <i name="WC">    100.00000000</i>
     <i type="int" name="INIMIX">     1</i>
     <i type="int" name="MIXPRE">     1</i>
     <i type="int" name="MREMOVE">     5</i>
    </separator>
   </separator>
   <separator name="electronic dipolcorrection" >
    <i type="logical" name="LDIPOL"> F  </i>
    <i type="logical" name="LMONO"> F  </i>
    <i type="int" name="IDIPOL">     0</i>
    <i name="EPSILON">      1.00000000</i>
    <v name="DIPOL">   -100.00000000   -100.00000000   -100.00000000</v>
    <i name="EFIELD">      0.00000000</i>
   </separator>
  </separator>
  <separator name="grids" >
   <i type="int" name="NGX">    24</i>
   <i type="int" name="NGY">    24</i>
   <i type="int" name="NGZ">    24</i>
   <i type="int" name="NGXF">    48</i>
   <i type="int" name="NGYF">    48</i>
   <i type="int" name="NGZF">    48</i>
   <i type="logical" name="ADDGRID"> F  </i>
  </separator>
  <separator name="ionic" >
   <i type="int" name="NSW">     0</i>
   <i type="int" name="IBRION">    -1</i>
   <i type="int" name="MDALGO">     0</i>
   <i type="int" name="ISIF">     2</i>
   <i name="PSTRESS">      0.00000000</i>
   <i name="EDIFFG">      0.00100000</i>
   <i type="int" name="NFREE">     0</i>
   <i name="POTIM">      0.50000000</i>
   <i name="SMASS">     -3.00000000</i>
   <i name="SCALEE">      1.00000000</i>
  </separator>
  <separator name="ionic md" >
   <i name="TEBEG">      0.00010000</i>
   <i name="TEEND">      0.00010000</i>
   <i type="int" name="NBLOCK">     1</i>
   <i type="int" name="KBLOCK">     1</i>
   <i type="int" name="NPACO">   256</i>
   <i name="APACO">     16.00000000</i>
  </separator>
  <separator name="symmetry" >
   <i type="int" name="ISYM">     2</i>
   <i name="SYMPREC">      0.00001000</i>
  </separator>
  <separator name="dos" >
   <i type="int" name="LORBIT">    11</i>
   <v name="RWIGS">     -1.00000000</v>
   <i type="int" name="NEDOS">   301</i>
   <i name="EMIN">     10.00000000</i>
   <i name="EMAX">    -10.00000000</i>
   <i name="EFERMI">      0.00000000</i>
  </separator>
  <separator name="writing" >
   <i type="int" name="NWRITE">     2</i>
   <i type="logical" name="LWAVE"> T  </i>
   <i type="logical" name="LDOWNSAMPLE"> F  </i>
   <i type="logical" name="LCHARG"> T  </i>
   <i type="logical" name="LPARD"> F  </i>
   <i type="logical" name="LVTOT"> F  </i>
   <i type="logical" name="LVHAR"> F  </i>
   <i type="logical" name="LELF"> F  </i>
   <i type="logical" name="LOPTICS"> F  </i>
   <v name="STM">      0.00000000      0.00000000      0.00000000      0.00000000      0.00000000      0.00000000      0.00000000</v>
  </separator>
  <separator name="performance" >
   <i type="int" name="NPAR">     3</i>
   <i type="int" name="NSIM">     4</i>
   <i type="int" name="NBLK">    -1</i>
   <i type="logical" name="LPLANE"> T  </i>
   <i type="logical" name="LSCALAPACK"> T  </i>
   <i type="logical" name="LSCAAWARE"> F  </i>
   <i type="logical" name="LSCALU"> F  </i>
   <i type="logical" name="LASYNC"> F  </i>
   <i type="logical" name="LORBITALREAL"> F  </i>
  </separator>
  <separator name="miscellaneous" >
   <i type="int" name="IDIOT">     3</i>
   <i type="int" name="ISPECIAL">     0</i>
   <i type="logical" name="LMUSIC"> F  </i>
   <v name="POMASS">     72.61000000</v>
   <v name="DARWINR">      0.00000000</v>
   <v name="DARWINV">      1.00000000</v>
   <i type="logical" name="LCORR"> T  </i>
  </separator>
  <i type="logical" name="GGA_COMPAT"> T  </i>
  <i type="logical" name="LBERRY"> F  </i>
  <i type="int" name="ICORELEVEL">     0</i>
  <i type="logical" name="LDAU"> T  </i>
  <v type="int" name="LDAUTYPE">     2</v>
  <v type="int" name="LDAUL">     1</v>
  <v name="LDAUU">      0.00000000</v>
  <v name="LDAUJ">      0.00000000</v>
  <i type="int" name="LDAUPRINT">     0</i>
  <i type="int" name="I_CONSTRAINED_M">     0</i>
  <separator name="electronic exchange-correlation" >
   <i type="string" name="GGA">PE</i>
   <i type="int" name="VOSKOWN">     0</i>
   <i type="logical" name="LHFCALC"> F  </i>
   <i type="string" name="PRECFOCK"></i>
   <i type="logical" name="LSYMGRAD"> F  </i>
   <i type="logical" name="LHFONE"> F  </i>
   <i type="logical" name="LRHFCALC"> F  </i>
   <i type="logical" name="LTHOMAS"> F  </i>
   <i type="logical" name="LMODELHF"> F  </i>
   <i name="ENCUT4O">     -1.00000000</i>
   <i type="int" name="EXXOEP">     0</i>
   <i type="int" name="FOURORBIT">     0</i>
   <i name="AEXX">      0.00000000</i>
   <i name="HFALPHA">      0.00000000</i>
   <i name="MCALPHA">      0.00000000</i>
   <i name="ALDAX">      1.00000000</i>
   <i name="AGGAX">      1.00000000</i>
   <i name="ALDAC">      1.00000000</i>
   <i name="AGGAC">      1.00000000</i>
   <i type="int" name="NKREDX">     1</i>
   <i type="int" name="NKREDY">     1</i>
   <i type="int" name="NKREDZ">     1</i>
   <i type="logical" name="SHIFTRED"> F  </i>
   <i type="logical" name="ODDONLY"> F  </i>
   <i type="logical" name="EVENONLY"> F  </i>
   <i type="int" name="LMAXFOCK">     0</i>
   <i type="int" name="NMAXFOCKAE">     0</i>
   <i type="logical" name="LFOCKAEDFT"> F  </i>
   <i name="HFSCREEN">      0.00000000</i>
   <i name="HFSCREENC">      0.00000000</i>
   <i type="int" name="NBANDSGWLOW">     0</i>
  </separator>
  <separator name="vdW DFT" >
   <i type="logical" name="LUSE_VDW"> F  </i>
   <i name="Zab_VDW">     -0.84910000</i>
   <i name="PARAM1">      0.12340000</i>
   <i name="PARAM2">      1.00000000</i>
   <i name="PARAM3">      0.00000000</i>
  </separator>
  <separator name="model GW" >
   <i type="int" name="MODEL_GW">     0</i>
   <i name="MODEL_EPS0">     13.40542284</i>
   <i name="MODEL_ALPHA">      1.00000000</i>
  </separator>
  <separator name="linear response parameters" >
   <i type="logical" name="LEPSILON"> F  </i>
   <i type="logical" name="LRPA"> F  </i>
   <i type="logical" name="LNABLA"> F  </i>
   <i type="logical" name="LVEL"> F  </i>
   <i type="int" name="KINTER">     0</i>
   <i name="CSHIFT">      0.10000000</i>
   <i name="OMEGAMAX">     -1.00000000</i>
   <i name="DEG_THRESHOLD">      0.00200000</i>
   <i name="RTIME">     -0.10000000</i>
   <i name="WPLASMAI">      0.00000000</i>
   <v name="DFIELD">      0.00000000      0.00000000      0.00000000</v>
   <v name="WPLASMA">      0.00000000      0.00000000      0.00000000      0.00000000      0.00000000      0.00000000      0.00000000      0.00000000      0.00000000</v>
  </separator>
  <separator name="orbital magnetization" >
   <i type="logical" name="NUCIND"> F  </i>
   <v name="MAGPOS">      0.00000000      0.00000000      0.00000000</v>
   <i type="logical" name="LNICSALL"> T  </i>
   <i type="logical" name="ORBITALMAG"> F  </i>
   <i type="logical" name="LMAGBLOCH"> F  </i>
   <i type="logical" name="LCHIMAG"> F  </i>
   <i type="logical" name="LGAUGE"> T  </i>
   <i type="int" name="MAGATOM">     0</i>
   <v name="MAGDIPOL">      0.00000000      0.00000000      0.00000000</v>
   <v name="AVECCONST">      0.00000000      0.00000000      0.00000000</v>
  </separator>
  <separator name="response functions" >
   <i type="logical" name="LADDER"> F  </i>
   <i type="logical" name="LRPAFORCE"> F  </i>
   <i type="logical" name="LFXC"> F  </i>
   <i type="logical" name="LHARTREE"> T  </i>
   <i type="int" name="IBSE">     0</i>
   <v type="int" name="KPOINT">    -1     0     0     0</v>
   <i type="logical" name="LTCTE"> F  </i>
   <i type="logical" name="LTETE"> F  </i>
   <i type="logical" name="LTRIPLET"> F  </i>
   <i type="logical" name="LFXCEPS"> F  </i>
   <i type="logical" name="LFXHEG"> F  </i>
   <i type="int" name="NATURALO">     2</i>
   <i type="logical" name="L2ORDER"> F  </i>
   <i type="logical" name="LMP2LT"> F  </i>
   <i type="logical" name="LUSEW"> F  </i>
   <i name="ENCUTGW">     -2.00000000</i>
   <i name="ENCUTGWSOFT">     -2.00000000</i>
   <i name="ENCUTLF">     -1.00000000</i>
   <i type="int" name="LMAXMP2">    -1</i>
   <i name="SCISSOR">      0.00000000</i>
   <i type="int" name="NOMEGA">     0</i>
   <i type="int" name="NOMEGAR">     0</i>
   <i type="int" name="NBANDSGW">    -1</i>
   <i type="int" name="NBANDSO">    -1</i>
   <i type="int" name="NBANDSV">    -1</i>
   <i type="int" name="NELM">     1</i>
   <i type="int" name="NELMHF">     1</i>
   <i type="int" name="DIM">     3</i>
   <i type="int" name="ANTIRES">     0</i>
   <i name="OMEGAMAX">    -30.00000000</i>
   <i name="OMEGAMIN">    -30.00000000</i>
   <i name="OMEGATL">   -200.00000000</i>
   <i type="int" name="OMEGAGRID">   140</i>
   <i name="CSHIFT">     -0.10000000</i>
   <i type="logical" name="SELFENERGY"> F  </i>
   <i type="logical" name="LSPECTRAL"> F  </i>
   <i type="logical" name="LSPECTRALGW"> F  </i>
   <i type="logical" name="LSINGLES"> F  </i>
   <i type="logical" name="LFERMIGW"> F  </i>
   <i type="logical" name="ODDONLYGW"> F  </i>
   <i type="logical" name="EVENONLYGW"> F  </i>
   <i type="int" name="NKREDLFX">     1</i>
   <i type="int" name="NKREDLFY">     1</i>
   <i type="int" name="NKREDLFZ">     1</i>
   <i type="int" name="MAXMEM">  2800</i>
   <i type="int" name="TELESCOPE">     0</i>
   <i type="int" name="TAUPAR">     1</i>
   <i type="int" name="OMEGAPAR">    -1</i>
   <i name="LAMBDA">      1.00000000</i>
  </separator>
  <separator name="External order field" >
   <i name="OFIELD_KAPPA">      0.00000000</i>
   <v name="OFIELD_K">      0.00000000      0.00000000      0.00000000</v>
   <i name="OFIELD_Q6_NEAR">      0.00000000</i>
   <i name="OFIELD_Q6_FAR">      0.00000000</i>
   <i name="OFIELD_A">      0.00000000</i>
  </separator>
 </parameters>
 <atominfo>
  <atoms>       2 </atoms>
  <types>       1 </types>
  <array name="atoms" >
   <dimension dim="1">ion</dimension>
   <field type="string">element</field>
   <field type="int">atomtype</field>
   <set>
    <rc><c>Ge</c><c>   1</c></rc>
    <rc><c>Ge</c><c>   1</c></rc>
   </set>
  </array>
  <array name="atomtypes" >
   <dimension dim="1">type</dimension>
   <field type="int">atomspertype</field>
   <field type="string">element</field>
   <field>mass</field>
   <field>valence</field>
   <field type="string">pseudopotential</field>
   <set>
    <rc><c>   2</c><c>Ge</c><c>     72.61000000</c><c>     14.00000000</c><c>  PAW_PBE Ge_d 03Jul2007                </c></rc>
   </set>
  </array>
 </atominfo>
 <structure name="initialpos" >
  <crystal>
   <varray name="basis" >
    <v>       0.00000000       2.81650000       2.81650000 </v>
    <v>       2.81650000       0.00000000       2.81650000 </v>
    <v>       2.81650000       2.81650000       0.00000000 </v>
   </varray>
   <i name="volume">     44.68474278 </i>
   <varray name="rec_basis" >
    <v>      -0.17752530       0.17752530       0.17752530 </v>
    <v>       0.17752530      -0.17752530       0.17752530 </v>
    <v>       0.17752530       0.17752530      -0.17752530 </v>
   </varray>
  </crystal>
  <varray name="positions" >
   <v>       0.00000000       0.00000000       0.00000000 </v>
   <v>       0.25000000       0.25000000       0.25000000 </v>
  </varray>
 </structure>
 <calculation>
  <scstep>
   <time name="total">    0.31    0.61</time>
   <energy>
    <i name="alphaZ">    131.13230232 </i>
    <i name="ewald">  -2699.00129049 </i>
    <i name="hartreedc">  -1507.28522658 </i>
    <i name="XCdc">    146.18216515 </i>
    <i name="pawpsdc">   3673.23166740 </i>
    <i name="pawaedc">  -4543.15754504 </i>
    <i name="eentropy">     -0.00113298 </i>
    <i name="bandstr">   -141.36135413 </i>
    <i name="atom">   5192.46507749 </i>
    <i name="e_fr_energy">    252.20466314 </i>
    <i name="e_wo_entrp">    252.20579612 </i>
    <i name="e_0_energy">    252.20522963 </i>
   </energy>
  </scstep>
  <scstep>
   <time name="total">    0.17    0.18</time>
   <energy>
    <i name="e_fr_energy">     53.75196521 </i>
    <i name="e_wo_entrp">     53.75235978 </i>
    <i name="e_0_energy">     53.75216250 </i>
   </energy>
  </scstep>
  <scstep>
   <time name="total">    0.14    0.15</time>
   <energy>
    <i name="e_fr_energy">     -0.54640518 </i>
    <i name="e_wo_entrp">     -0.54630438 </i>
    <i name="e_0_energy">     -0.54635478 </i>
   </energy>
  </scstep>
  <scstep>
   <time name="total">    0.12    0.13</time>
   <energy>
    <i name="e_fr_energy">     -8.23934112 </i>
    <i name="e_wo_entrp">     -8.23929193 </i>
    <i name="e_0_energy">     -8.23931653 </i>
   </energy>
  </scstep>
  <scstep>
   <time name="total">    0.25    0.37</time>
   <energy>
    <i name="e_fr_energy">     -8.99628407 </i>
    <i name="e_wo_entrp">     -8.99623628 </i>
    <i name="e_0_energy">     -8.99626018 </i>
   </energy>
  </scstep>
  <scstep>
   <time name="total">    0.10    0.17</time>
   <energy>
    <i name="e_fr_energy">     -8.88451120 </i>
    <i name="e_wo_entrp">     -8.88446730 </i>
    <i name="e_0_energy">     -8.88448925 </i>
   </energy>
  </scstep>
  <scstep>
   <time name="total">    0.08    0.08</time>
   <energy>
    <i name="e_fr_energy">     -8.92511564 </i>
    <i name="e_wo_entrp">     -8.92507493 </i>
    <i name="e_0_energy">     -8.92509529 </i>
   </energy>
  </scstep>
  <scstep>
   <time name="total">    0.08    0.08</time>
   <energy>
    <i name="e_fr_energy">     -8.94212554 </i>
    <i name="e_wo_entrp">     -8.94208653 </i>
    <i name="e_0_energy">     -8.94210603 </i>
   </energy>
  </scstep>
  <scstep>
   <time name="total">    0.08    0.08</time>
   <energy>
    <i name="e_fr_energy">     -8.94616804 </i>
    <i name="e_wo_entrp">     -8.94612988 </i>
    <i name="e_0_energy">     -8.94614896 </i>
   </energy>
  </scstep>
  <scstep>
   <time name="total">    0.08    0.08</time>
   <energy>
    <i name="e_fr_energy">     -8.94780197 </i>
    <i name="e_wo_entrp">     -8.94776433 </i>
    <i name="e_0_energy">     -8.94778315 </i>
   </energy>
  </scstep>
  <scstep>
   <time name="total">    0.08    0.08</time>
   <energy>
    <i name="e_fr_energy">     -8.94875458 </i>
    <i name="e_wo_entrp">     -8.94871719 </i>
    <i name="e_0_energy">     -8.94873589 </i>
   </energy>
  </scstep>
  <scstep>
   <time name="total">    0.08    0.08</time>
   <energy>
    <i name="e_fr_energy">     -8.94916920 </i>
    <i name="e_wo_entrp">     -8.94913179 </i>
    <i name="e_0_energy">     -8.94915049 </i>
   </energy>
  </scstep>
  <scstep>
   <time name="total">    0.08    0.08</time>
   <energy>
    <i name="e_fr_energy">     -8.94928859 </i>
    <i name="e_wo_entrp">     -8.94925101 </i>
    <i name="e_0_energy">     -8.94926980 </i>
   </energy>
  </scstep>
  <scstep>
   <time name="total">    0.11    0.11</time>
   <energy>
    <i name="alphaZ">    131.13230232 </i>
    <i name="ewald">  -2699.00129049 </i>
    <i name="hartreedc">  -1507.88250449 </i>
    <i name="XCdc">    145.86568352 </i>
    <i name="pawpsdc">   4547.73536066 </i>
    <i name="pawaedc">  -5423.48127601 </i>
    <i name="eentropy">     -0.00003778 </i>
    <i name="bandstr">   -395.78263560 </i>
    <i name="atom">   5192.46507749 </i>
    <i name="e_fr_energy">     -8.94932018 </i>
    <i name="e_wo_entrp">     -8.94928239 </i>
    <i name="e_0_energy">     -8.94930128 </i>
   </energy>
  </scstep>
  <structure>
   <crystal>
    <varray name="basis" >
     <v>       0.00000000       2.81650000       2.81650000 </v>
     <v>       2.81650000       0.00000000       2.81650000 </v>
     <v>       2.81650000       2.81650000       0.00000000 </v>
    </varray>
    <i name="volume">     44.68474278 </i>
    <varray name="rec_basis" >
     <v>      -0.17752530       0.17752530       0.17752530 </v>
     <v>       0.17752530      -0.17752530       0.17752530 </v>
     <v>       0.17752530       0.17752530      -0.17752530 </v>
    </varray>
   </crystal>
   <varray name="positions" >
    <v>       0.00000000       0.00000000       0.00000000 </v>
    <v>       0.25000000       0.25000000       0.25000000 </v>
   </varray>
  </structure>
  <varray name="forces" >
   <v>       0.00000000       0.00000000      -0.00000000 </v>
   <v>      -0.00000000      -0.00000000       0.00000000 </v>
  </varray>
  <varray name="stress" >
   <v>      43.63246974       0.00000000      -0.00000000 </v>
   <v>       0.00000000      43.63246974       0.00000000 </v>
   <v>      -0.00000000       0.00000000      43.63246974 </v>
  </varray>
  <energy>
   <i name="e_fr_energy">     -8.94932018 </i>
   <i name="e_wo_entrp">     -8.94930128 </i>
   <i name="e_0_energy">     -0.00003778 </i>
  </energy>
  <time name="totalsc">    2.05    2.97</time>
  <eigenvalues>
   <array>
    <dimension dim="1">band</dimension>
    <dimension dim="2">kpoint</dimension>
    <dimension dim="3">spin</dimension>
    <field>eigene</field>
    <field>occ</field>
    <set>
     <set comment="spin 1">
      <set comment="kpoint 1">
       <r>  -19.7061    1.0000 </r>
       <r>  -19.7061    1.0000 </r>
       <r>  -19.7061    1.0000 </r>
       <r>  -19.6699    1.0000 </r>
       <r>  -19.6699    1.0000 </r>
       <r>  -19.4514    1.0000 </r>
       <r>  -19.4514    1.0000 </r>
       <r>  -19.4514    1.0000 </r>
       <r>  -19.4373    1.0000 </r>
       <r>  -19.4373    1.0000 </r>
       <r>   -7.7448    1.0000 </r>
       <r>    5.1290    0.9925 </r>
       <r>    5.1290    0.9925 </r>
       <r>    5.1290    0.9925 </r>
       <r>    5.2856    0.0222 </r>
       <r>    7.6858    0.0000 </r>
       <r>    7.6858    0.0000 </r>
       <r>    7.6858    0.0000 </r>
       <r>   11.5902    0.0000 </r>
       <r>   14.6438    0.0000 </r>
       <r>   14.6438    0.0000 </r>
       <r>   15.9534    0.0000 </r>
       <r>   15.9534    0.0000 </r>
       <r>   15.9534    0.0000 </r>
       <r>   19.0274    0.0000 </r>
       <r>   30.6115    0.0000 </r>
       <r>   30.6115    0.0000 </r>
       <r>   30.6115    0.0000 </r>
       <r>   31.2630    0.0000 </r>
       <r>   31.2630    0.0000 </r>
       <r>   31.2630    0.0000 </r>
       <r>   31.8323    0.0000 </r>
       <r>   31.8323    0.0000 </r>
       <r>   31.8323    0.0000 </r>
       <r>   32.8662    0.0000 </r>
       <r>   32.8663    0.0000 </r>
       <r>   39.8770    0.0000 </r>
       <r>   44.2627    0.0000 </r>
       <r>   44.7844    0.0000 </r>
       <r>   44.8644    0.0000 </r>
       <r>   45.0433    0.0000 </r>
       <r>   45.1558    0.0000 </r>
       <r>   45.3938    0.0000 </r>
       <r>   45.7459    0.0000 </r>
       <r>   46.1189    0.0000 </r>
       <r>   46.2307    0.0000 </r>
       <r>   46.3714    0.0000 </r>
       <r>   46.5538    0.0000 </r>
       <r>   46.6983    0.0000 </r>
       <r>   46.9306    0.0000 </r>
       <r>   47.1039    0.0000 </r>
       <r>   47.4972    0.0000 </r>
       <r>   47.6439    0.0000 </r>
       <r>   47.8296    0.0000 </r>
      </set>
      <set comment="kpoint 2">
       <r>  -19.7187    1.0000 </r>
       <r>  -19.7187    1.0000 </r>
       <r>  -19.7019    1.0000 </r>
       <r>  -19.6517    1.0000 </r>
       <r>  -19.6517    1.0000 </r>
       <r>  -19.4690    1.0000 </r>
       <r>  -19.4690    1.0000 </r>
       <r>  -19.4567    1.0000 </r>
       <r>  -19.4229    1.0000 </r>
       <r>  -19.4228    1.0000 </r>
       <r>   -7.4041    1.0000 </r>
       <r>    1.9666    1.0000 </r>
       <r>    4.5976    1.0000 </r>
       <r>    4.5976    1.0000 </r>
       <r>    6.1419    0.0000 </r>
       <r>    8.3882    0.0000 </r>
       <r>    8.3882    0.0000 </r>
       <r>    9.3500    0.0000 </r>
       <r>   12.9963    0.0000 </r>
       <r>   13.4977    0.0000 </r>
       <r>   13.4977    0.0000 </r>
       <r>   15.1623    0.0000 </r>
       <r>   18.4241    0.0000 </r>
       <r>   18.4241    0.0000 </r>
       <r>   21.2981    0.0000 </r>
       <r>   26.0089    0.0000 </r>
       <r>   26.0089    0.0000 </r>
       <r>   26.2464    0.0000 </r>
       <r>   31.1650    0.0000 </r>
       <r>   31.1650    0.0000 </r>
       <r>   31.5448    0.0000 </r>
       <r>   32.6224    0.0000 </r>
       <r>   32.6224    0.0000 </r>
       <r>   35.0425    0.0000 </r>
       <r>   38.1126    0.0000 </r>
       <r>   38.1131    0.0000 </r>
       <r>   38.1501    0.0000 </r>
       <r>   39.1672    0.0000 </r>
       <r>   39.1675    0.0000 </r>
       <r>   41.7214    0.0000 </r>
       <r>   41.8733    0.0000 </r>
       <r>   41.9052    0.0000 </r>
       <r>   42.6177    0.0000 </r>
       <r>   42.6273    0.0000 </r>
       <r>   42.6495    0.0000 </r>
       <r>   42.7160    0.0000 </r>
       <r>   44.9036    0.0000 </r>
       <r>   45.8607    0.0000 </r>
       <r>   45.9495    0.0000 </r>
       <r>   46.1569    0.0000 </r>
       <r>   47.9698    0.0000 </r>
       <r>   48.2894    0.0000 </r>
       <r>   49.5409    0.0000 </r>
       <r>   50.8206    0.0000 </r>
      </set>
      <set comment="kpoint 3">
       <r>  -19.7292    1.0000 </r>
       <r>  -19.7292    1.0000 </r>
       <r>  -19.6929    1.0000 </r>
       <r>  -19.6319    1.0000 </r>
       <r>  -19.6319    1.0000 </r>
       <r>  -19.4836    1.0000 </r>
       <r>  -19.4836    1.0000 </r>
       <r>  -19.4673    1.0000 </r>
       <r>  -19.4121    1.0000 </r>
       <r>  -19.4121    1.0000 </r>
       <r>   -6.4584    1.0000 </r>
       <r>   -0.9956    1.0000 </r>
       <r>    3.9437    1.0000 </r>
       <r>    3.9437    1.0000 </r>
       <r>    5.5820    0.0000 </r>
       <r>    8.9190    0.0000 </r>
       <r>    8.9191    0.0000 </r>
       <r>   12.2334    0.0000 </r>
       <r>   13.0319    0.0000 </r>
       <r>   14.1365    0.0000 </r>
       <r>   14.1365    0.0000 </r>
       <r>   17.6622    0.0000 </r>
       <r>   21.0794    0.0000 </r>
       <r>   21.0794    0.0000 </r>
       <r>   22.2025    0.0000 </r>
       <r>   22.4642    0.0000 </r>
       <r>   22.4642    0.0000 </r>
       <r>   25.5653    0.0000 </r>
       <r>   31.4622    0.0000 </r>
       <r>   32.0663    0.0000 </r>
       <r>   32.0663    0.0000 </r>
       <r>   32.2544    0.0000 </r>
       <r>   32.8542    0.0000 </r>
       <r>   32.8542    0.0000 </r>
       <r>   33.4344    0.0000 </r>
       <r>   33.4344    0.0000 </r>
       <r>   36.3866    0.0000 </r>
       <r>   38.0296    0.0000 </r>
       <r>   38.9620    0.0000 </r>
       <r>   38.9629    0.0000 </r>
       <r>   39.3037    0.0000 </r>
       <r>   39.3037    0.0000 </r>
       <r>   39.7108    0.0000 </r>
       <r>   40.9304    0.0000 </r>
       <r>   44.0633    0.0000 </r>
       <r>   44.9104    0.0000 </r>
       <r>   45.0044    0.0000 </r>
       <r>   45.8544    0.0000 </r>
       <r>   45.8708    0.0000 </r>
       <r>   47.1652    0.0000 </r>
       <r>   47.2252    0.0000 </r>
       <r>   47.5949    0.0000 </r>
       <r>   48.8054    0.0000 </r>
       <r>   52.9828    0.0000 </r>
      </set>
      <set comment="kpoint 4">
       <r>  -19.7317    1.0000 </r>
       <r>  -19.7317    1.0000 </r>
       <r>  -19.6881    1.0000 </r>
       <r>  -19.6264    1.0000 </r>
       <r>  -19.6264    1.0000 </r>
       <r>  -19.4870    1.0000 </r>
       <r>  -19.4870    1.0000 </r>
       <r>  -19.4728    1.0000 </r>
       <r>  -19.4094    1.0000 </r>
       <r>  -19.4094    1.0000 </r>
       <r>   -5.6227    1.0000 </r>
       <r>   -2.5300    1.0000 </r>
       <r>    3.7026    1.0000 </r>
       <r>    3.7026    1.0000 </r>
       <r>    5.3538    0.0000 </r>
       <r>    8.8817    0.0000 </r>
       <r>    8.8817    0.0000 </r>
       <r>   12.2692    0.0000 </r>
       <r>   15.7883    0.0000 </r>
       <r>   16.3802    0.0000 </r>
       <r>   16.4214    0.0000 </r>
       <r>   16.4214    0.0000 </r>
       <r>   17.6709    0.0000 </r>
       <r>   17.6709    0.0000 </r>
       <r>   24.0274    0.0000 </r>
       <r>   26.2474    0.0000 </r>
       <r>   26.8633    0.0000 </r>
       <r>   26.8633    0.0000 </r>
       <r>   27.6114    0.0000 </r>
       <r>   27.6114    0.0000 </r>
       <r>   30.6810    0.0000 </r>
       <r>   31.2804    0.0000 </r>
       <r>   32.7424    0.0000 </r>
       <r>   32.7849    0.0000 </r>
       <r>   32.7849    0.0000 </r>
       <r>   34.0183    0.0000 </r>
       <r>   34.0183    0.0000 </r>
       <r>   37.7002    0.0000 </r>
       <r>   37.7002    0.0000 </r>
       <r>   37.7836    0.0000 </r>
       <r>   37.7838    0.0000 </r>
       <r>   38.4623    0.0000 </r>
       <r>   38.5279    0.0000 </r>
       <r>   39.4785    0.0000 </r>
       <r>   43.6849    0.0000 </r>
       <r>   45.7597    0.0000 </r>
       <r>   45.7839    0.0000 </r>
       <r>   46.3442    0.0000 </r>
       <r>   46.4028    0.0000 </r>
       <r>   47.6036    0.0000 </r>
       <r>   52.4186    0.0000 </r>
       <r>   53.1385    0.0000 </r>
       <r>   53.8740    0.0000 </r>
       <r>   54.4369    0.0000 </r>
      </set>
      <set comment="kpoint 5">
       <r>  -19.7161    1.0000 </r>
       <r>  -19.7161    1.0000 </r>
       <r>  -19.7160    1.0000 </r>
       <r>  -19.6536    1.0000 </r>
       <r>  -19.6307    1.0000 </r>
       <r>  -19.5041    1.0000 </r>
       <r>  -19.4522    1.0000 </r>
       <r>  -19.4364    1.0000 </r>
       <r>  -19.4364    1.0000 </r>
       <r>  -19.4201    1.0000 </r>
       <r>   -7.2872    1.0000 </r>
       <r>    1.9792    1.0000 </r>
       <r>    3.8171    1.0000 </r>
       <r>    3.8171    1.0000 </r>
       <r>    6.7033    0.0000 </r>
       <r>    7.9519    0.0000 </r>
       <r>    9.5708    0.0000 </r>
       <r>    9.5708    0.0000 </r>
       <r>   12.0199    0.0000 </r>
       <r>   13.5918    0.0000 </r>
       <r>   15.1196    0.0000 </r>
       <r>   16.9046    0.0000 </r>
       <r>   16.9046    0.0000 </r>
       <r>   17.8068    0.0000 </r>
       <r>   22.7213    0.0000 </r>
       <r>   25.6237    0.0000 </r>
       <r>   25.6237    0.0000 </r>
       <r>   26.6743    0.0000 </r>
       <r>   27.0436    0.0000 </r>
       <r>   31.4691    0.0000 </r>
       <r>   31.4691    0.0000 </r>
       <r>   32.2756    0.0000 </r>
       <r>   35.0364    0.0000 </r>
       <r>   37.6367    0.0000 </r>
       <r>   37.6834    0.0000 </r>
       <r>   37.6836    0.0000 </r>
       <r>   38.0394    0.0000 </r>
       <r>   38.0421    0.0000 </r>
       <r>   38.3578    0.0000 </r>
       <r>   38.9195    0.0000 </r>
       <r>   41.5434    0.0000 </r>
       <r>   42.2237    0.0000 </r>
       <r>   42.2465    0.0000 </r>
       <r>   42.9662    0.0000 </r>
       <r>   43.6323    0.0000 </r>
       <r>   43.7268    0.0000 </r>
       <r>   44.5314    0.0000 </r>
       <r>   44.7960    0.0000 </r>
       <r>   45.0742    0.0000 </r>
       <r>   48.3967    0.0000 </r>
       <r>   48.6674    0.0000 </r>
       <r>   49.0847    0.0000 </r>
       <r>   49.8591    0.0000 </r>
       <r>   50.8991    0.0000 </r>
      </set>
      <set comment="kpoint 6">
       <r>  -19.7372    1.0000 </r>
       <r>  -19.7268    1.0000 </r>
       <r>  -19.6957    1.0000 </r>
       <r>  -19.6323    1.0000 </r>
       <r>  -19.6043    1.0000 </r>
       <r>  -19.5304    1.0000 </r>
       <r>  -19.4749    1.0000 </r>
       <r>  -19.4502    1.0000 </r>
       <r>  -19.4181    1.0000 </r>
       <r>  -19.4041    1.0000 </r>
       <r>   -6.5209    1.0000 </r>
       <r>   -0.3029    1.0000 </r>
       <r>    2.8130    1.0000 </r>
       <r>    3.1968    1.0000 </r>
       <r>    6.9106    0.0000 </r>
       <r>    8.2967    0.0000 </r>
       <r>   10.0836    0.0000 </r>
       <r>   10.4481    0.0000 </r>
       <r>   13.6914    0.0000 </r>
       <r>   14.9093    0.0000 </r>
       <r>   15.4566    0.0000 </r>
       <r>   17.2537    0.0000 </r>
       <r>   19.7458    0.0000 </r>
       <r>   21.0583    0.0000 </r>
       <r>   21.3849    0.0000 </r>
       <r>   21.5733    0.0000 </r>
       <r>   25.8638    0.0000 </r>
       <r>   26.6173    0.0000 </r>
       <r>   26.8970    0.0000 </r>
       <r>   28.3323    0.0000 </r>
       <r>   31.3412    0.0000 </r>
       <r>   32.2037    0.0000 </r>
       <r>   34.3684    0.0000 </r>
       <r>   34.3993    0.0000 </r>
       <r>   34.6330    0.0000 </r>
       <r>   35.7424    0.0000 </r>
       <r>   37.2135    0.0000 </r>
       <r>   37.5195    0.0000 </r>
       <r>   38.7105    0.0000 </r>
       <r>   39.2604    0.0000 </r>
       <r>   39.9552    0.0000 </r>
       <r>   40.0880    0.0000 </r>
       <r>   40.8950    0.0000 </r>
       <r>   41.8354    0.0000 </r>
       <r>   43.0900    0.0000 </r>
       <r>   44.0715    0.0000 </r>
       <r>   44.9775    0.0000 </r>
       <r>   46.5406    0.0000 </r>
       <r>   46.8041    0.0000 </r>
       <r>   47.0977    0.0000 </r>
       <r>   48.5272    0.0000 </r>
       <r>   49.0074    0.0000 </r>
       <r>   49.7073    0.0000 </r>
       <r>   51.1172    0.0000 </r>
      </set>
      <set comment="kpoint 7">
       <r>  -19.7487    1.0000 </r>
       <r>  -19.7352    1.0000 </r>
       <r>  -19.6712    1.0000 </r>
       <r>  -19.6125    1.0000 </r>
       <r>  -19.6037    1.0000 </r>
       <r>  -19.5250    1.0000 </r>
       <r>  -19.4976    1.0000 </r>
       <r>  -19.4777    1.0000 </r>
       <r>  -19.4048    1.0000 </r>
       <r>  -19.3916    1.0000 </r>
       <r>   -5.4470    1.0000 </r>
       <r>   -2.3199    1.0000 </r>
       <r>    1.9744    1.0000 </r>
       <r>    3.1298    1.0000 </r>
       <r>    6.7701    0.0000 </r>
       <r>    8.9465    0.0000 </r>
       <r>   10.1306    0.0000 </r>
       <r>   11.5875    0.0000 </r>
       <r>   14.4240    0.0000 </r>
       <r>   16.2463    0.0000 </r>
       <r>   16.4384    0.0000 </r>
       <r>   17.1238    0.0000 </r>
       <r>   18.2202    0.0000 </r>
       <r>   21.6949    0.0000 </r>
       <r>   23.3123    0.0000 </r>
       <r>   24.1466    0.0000 </r>
       <r>   25.5341    0.0000 </r>
       <r>   26.4320    0.0000 </r>
       <r>   27.6890    0.0000 </r>
       <r>   28.5753    0.0000 </r>
       <r>   28.9727    0.0000 </r>
       <r>   31.1313    0.0000 </r>
       <r>   31.1889    0.0000 </r>
       <r>   32.5234    0.0000 </r>
       <r>   32.7895    0.0000 </r>
       <r>   33.0112    0.0000 </r>
       <r>   34.2158    0.0000 </r>
       <r>   35.8900    0.0000 </r>
       <r>   37.4611    0.0000 </r>
       <r>   38.1668    0.0000 </r>
       <r>   38.8885    0.0000 </r>
       <r>   39.5757    0.0000 </r>
       <r>   41.6448    0.0000 </r>
       <r>   42.7087    0.0000 </r>
       <r>   42.7930    0.0000 </r>
       <r>   44.5614    0.0000 </r>
       <r>   44.9184    0.0000 </r>
       <r>   47.3906    0.0000 </r>
       <r>   49.0269    0.0000 </r>
       <r>   50.1231    0.0000 </r>
       <r>   50.4236    0.0000 </r>
       <r>   51.1677    0.0000 </r>
       <r>   51.9668    0.0000 </r>
       <r>   54.2175    0.0000 </r>
      </set>
      <set comment="kpoint 8">
       <r>  -19.7452    1.0000 </r>
       <r>  -19.7387    1.0000 </r>
       <r>  -19.6669    1.0000 </r>
       <r>  -19.6248    1.0000 </r>
       <r>  -19.6043    1.0000 </r>
       <r>  -19.5113    1.0000 </r>
       <r>  -19.4944    1.0000 </r>
       <r>  -19.4870    1.0000 </r>
       <r>  -19.3998    1.0000 </r>
       <r>  -19.3970    1.0000 </r>
       <r>   -5.7859    1.0000 </r>
       <r>   -1.7734    1.0000 </r>
       <r>    1.7632    1.0000 </r>
       <r>    3.6249    1.0000 </r>
       <r>    6.9178    0.0000 </r>
       <r>    9.2028    0.0000 </r>
       <r>    9.5982    0.0000 </r>
       <r>   11.9407    0.0000 </r>
       <r>   13.4999    0.0000 </r>
       <r>   14.3231    0.0000 </r>
       <r>   16.2246    0.0000 </r>
       <r>   18.0490    0.0000 </r>
       <r>   19.8393    0.0000 </r>
       <r>   21.6356    0.0000 </r>
       <r>   21.8276    0.0000 </r>
       <r>   23.3248    0.0000 </r>
       <r>   26.0716    0.0000 </r>
       <r>   27.4732    0.0000 </r>
       <r>   28.0748    0.0000 </r>
       <r>   28.5603    0.0000 </r>
       <r>   29.3299    0.0000 </r>
       <r>   29.4563    0.0000 </r>
       <r>   32.2278    0.0000 </r>
       <r>   32.6543    0.0000 </r>
       <r>   32.9880    0.0000 </r>
       <r>   33.3326    0.0000 </r>
       <r>   35.2093    0.0000 </r>
       <r>   37.0700    0.0000 </r>
       <r>   38.3227    0.0000 </r>
       <r>   38.9593    0.0000 </r>
       <r>   39.3246    0.0000 </r>
       <r>   39.4005    0.0000 </r>
       <r>   41.6319    0.0000 </r>
       <r>   41.8774    0.0000 </r>
       <r>   42.0190    0.0000 </r>
       <r>   44.8287    0.0000 </r>
       <r>   44.9763    0.0000 </r>
       <r>   45.9217    0.0000 </r>
       <r>   46.4563    0.0000 </r>
       <r>   48.3029    0.0000 </r>
       <r>   50.9790    0.0000 </r>
       <r>   51.9774    0.0000 </r>
       <r>   53.0375    0.0000 </r>
       <r>   53.8999    0.0000 </r>
      </set>
      <set comment="kpoint 9">
       <r>  -19.7330    1.0000 </r>
       <r>  -19.7282    1.0000 </r>
       <r>  -19.6897    1.0000 </r>
       <r>  -19.6422    1.0000 </r>
       <r>  -19.6234    1.0000 </r>
       <r>  -19.4978    1.0000 </r>
       <r>  -19.4830    1.0000 </r>
       <r>  -19.4535    1.0000 </r>
       <r>  -19.4203    1.0000 </r>
       <r>  -19.4057    1.0000 </r>
       <r>   -6.8508    1.0000 </r>
       <r>    0.4111    1.0000 </r>
       <r>    2.5430    1.0000 </r>
       <r>    4.4238    1.0000 </r>
       <r>    7.1179    0.0000 </r>
       <r>    8.7064    0.0000 </r>
       <r>    8.9374    0.0000 </r>
       <r>   10.3047    0.0000 </r>
       <r>   12.4579    0.0000 </r>
       <r>   14.5664    0.0000 </r>
       <r>   14.5746    0.0000 </r>
       <r>   17.0419    0.0000 </r>
       <r>   18.2428    0.0000 </r>
       <r>   21.0142    0.0000 </r>
       <r>   21.7929    0.0000 </r>
       <r>   24.0464    0.0000 </r>
       <r>   25.7113    0.0000 </r>
       <r>   26.3560    0.0000 </r>
       <r>   26.7085    0.0000 </r>
       <r>   28.3765    0.0000 </r>
       <r>   31.7857    0.0000 </r>
       <r>   33.8693    0.0000 </r>
       <r>   34.8136    0.0000 </r>
       <r>   35.1347    0.0000 </r>
       <r>   35.7448    0.0000 </r>
       <r>   35.9163    0.0000 </r>
       <r>   38.2427    0.0000 </r>
       <r>   38.6442    0.0000 </r>
       <r>   39.0559    0.0000 </r>
       <r>   39.4336    0.0000 </r>
       <r>   39.6468    0.0000 </r>
       <r>   40.6316    0.0000 </r>
       <r>   41.5130    0.0000 </r>
       <r>   41.5834    0.0000 </r>
       <r>   42.2054    0.0000 </r>
       <r>   42.2911    0.0000 </r>
       <r>   44.2750    0.0000 </r>
       <r>   44.4226    0.0000 </r>
       <r>   46.8766    0.0000 </r>
       <r>   47.1591    0.0000 </r>
       <r>   47.6834    0.0000 </r>
       <r>   48.6552    0.0000 </r>
       <r>   49.5216    0.0000 </r>
       <r>   51.8473    0.0000 </r>
      </set>
      <set comment="kpoint 10">
       <r>  -19.7334    1.0000 </r>
       <r>  -19.7334    1.0000 </r>
       <r>  -19.7018    1.0000 </r>
       <r>  -19.6095    1.0000 </r>
       <r>  -19.5810    1.0000 </r>
       <r>  -19.5618    1.0000 </r>
       <r>  -19.4933    1.0000 </r>
       <r>  -19.4386    1.0000 </r>
       <r>  -19.4081    1.0000 </r>
       <r>  -19.4081    1.0000 </r>
       <r>   -5.9419    1.0000 </r>
       <r>   -1.0820    1.0000 </r>
       <r>    2.4834    1.0000 </r>
       <r>    2.4834    1.0000 </r>
       <r>    5.7751    0.0000 </r>
       <r>    7.0980    0.0000 </r>
       <r>   12.5235    0.0000 </r>
       <r>   12.5235    0.0000 </r>
       <r>   13.7019    0.0000 </r>
       <r>   16.5518    0.0000 </r>
       <r>   17.0774    0.0000 </r>
       <r>   19.7896    0.0000 </r>
       <r>   19.7896    0.0000 </r>
       <r>   20.3058    0.0000 </r>
       <r>   20.8795    0.0000 </r>
       <r>   20.8795    0.0000 </r>
       <r>   22.3303    0.0000 </r>
       <r>   23.3834    0.0000 </r>
       <r>   29.4119    0.0000 </r>
       <r>   30.4878    0.0000 </r>
       <r>   30.5617    0.0000 </r>
       <r>   30.5617    0.0000 </r>
       <r>   31.6259    0.0000 </r>
       <r>   32.8374    0.0000 </r>
       <r>   32.8374    0.0000 </r>
       <r>   33.7095    0.0000 </r>
       <r>   36.8702    0.0000 </r>
       <r>   38.8535    0.0000 </r>
       <r>   39.0645    0.0000 </r>
       <r>   39.0657    0.0000 </r>
       <r>   41.8156    0.0000 </r>
       <r>   41.8158    0.0000 </r>
       <r>   42.6298    0.0000 </r>
       <r>   43.1574    0.0000 </r>
       <r>   43.3938    0.0000 </r>
       <r>   45.1208    0.0000 </r>
       <r>   45.1598    0.0000 </r>
       <r>   45.3323    0.0000 </r>
       <r>   45.4643    0.0000 </r>
       <r>   45.8845    0.0000 </r>
       <r>   45.9182    0.0000 </r>
       <r>   46.2833    0.0000 </r>
       <r>   47.8358    0.0000 </r>
       <r>   52.8858    0.0000 </r>
      </set>
      <set comment="kpoint 11">
       <r>  -19.7513    1.0000 </r>
       <r>  -19.7398    1.0000 </r>
       <r>  -19.6669    1.0000 </r>
       <r>  -19.6003    1.0000 </r>
       <r>  -19.5824    1.0000 </r>
       <r>  -19.5412    1.0000 </r>
       <r>  -19.5218    1.0000 </r>
       <r>  -19.4763    1.0000 </r>
       <r>  -19.3978    1.0000 </r>
       <r>  -19.3873    1.0000 </r>
       <r>   -4.8563    1.0000 </r>
       <r>   -2.5974    1.0000 </r>
       <r>    1.3328    1.0000 </r>
       <r>    2.3240    1.0000 </r>
       <r>    6.1664    0.0000 </r>
       <r>    7.8081    0.0000 </r>
       <r>   12.2314    0.0000 </r>
       <r>   12.8197    0.0000 </r>
       <r>   15.6438    0.0000 </r>
       <r>   16.8660    0.0000 </r>
       <r>   17.2500    0.0000 </r>
       <r>   18.9289    0.0000 </r>
       <r>   19.1358    0.0000 </r>
       <r>   21.5109    0.0000 </r>
       <r>   22.6116    0.0000 </r>
       <r>   22.8603    0.0000 </r>
       <r>   23.6736    0.0000 </r>
       <r>   24.6415    0.0000 </r>
       <r>   25.3847    0.0000 </r>
       <r>   27.8559    0.0000 </r>
       <r>   28.0592    0.0000 </r>
       <r>   29.0350    0.0000 </r>
       <r>   30.6885    0.0000 </r>
       <r>   32.6131    0.0000 </r>
       <r>   33.6376    0.0000 </r>
       <r>   34.1782    0.0000 </r>
       <r>   36.0945    0.0000 </r>
       <r>   36.5494    0.0000 </r>
       <r>   38.0955    0.0000 </r>
       <r>   38.7857    0.0000 </r>
       <r>   39.0582    0.0000 </r>
       <r>   40.3804    0.0000 </r>
       <r>   41.7102    0.0000 </r>
       <r>   42.2129    0.0000 </r>
       <r>   43.3616    0.0000 </r>
       <r>   45.2270    0.0000 </r>
       <r>   46.0242    0.0000 </r>
       <r>   46.9626    0.0000 </r>
       <r>   47.2467    0.0000 </r>
       <r>   48.7289    0.0000 </r>
       <r>   49.7230    0.0000 </r>
       <r>   51.8061    0.0000 </r>
       <r>   52.2527    0.0000 </r>
       <r>   53.1295    0.0000 </r>
      </set>
      <set comment="kpoint 12">
       <r>  -19.7599    1.0000 </r>
       <r>  -19.7427    1.0000 </r>
       <r>  -19.6508    1.0000 </r>
       <r>  -19.5781    1.0000 </r>
       <r>  -19.5719    1.0000 </r>
       <r>  -19.5580    1.0000 </r>
       <r>  -19.5379    1.0000 </r>
       <r>  -19.4925    1.0000 </r>
       <r>  -19.3944    1.0000 </r>
       <r>  -19.3793    1.0000 </r>
       <r>   -4.7190    1.0000 </r>
       <r>   -2.7457    1.0000 </r>
       <r>    0.6083    1.0000 </r>
       <r>    2.7814    1.0000 </r>
       <r>    6.5692    0.0000 </r>
       <r>   10.9506    0.0000 </r>
       <r>   11.5960    0.0000 </r>
       <r>   11.6251    0.0000 </r>
       <r>   12.3688    0.0000 </r>
       <r>   14.0889    0.0000 </r>
       <r>   18.8065    0.0000 </r>
       <r>   19.0545    0.0000 </r>
       <r>   21.0223    0.0000 </r>
       <r>   22.3359    0.0000 </r>
       <r>   23.1496    0.0000 </r>
       <r>   23.9972    0.0000 </r>
       <r>   24.0157    0.0000 </r>
       <r>   26.3273    0.0000 </r>
       <r>   27.0914    0.0000 </r>
       <r>   27.5367    0.0000 </r>
       <r>   27.5559    0.0000 </r>
       <r>   27.9448    0.0000 </r>
       <r>   30.8836    0.0000 </r>
       <r>   31.5335    0.0000 </r>
       <r>   31.6661    0.0000 </r>
       <r>   33.4231    0.0000 </r>
       <r>   33.4873    0.0000 </r>
       <r>   36.2426    0.0000 </r>
       <r>   38.3846    0.0000 </r>
       <r>   39.1823    0.0000 </r>
       <r>   39.2669    0.0000 </r>
       <r>   39.8714    0.0000 </r>
       <r>   40.1906    0.0000 </r>
       <r>   40.5500    0.0000 </r>
       <r>   45.8666    0.0000 </r>
       <r>   47.0459    0.0000 </r>
       <r>   47.7057    0.0000 </r>
       <r>   48.8069    0.0000 </r>
       <r>   48.9068    0.0000 </r>
       <r>   50.1131    0.0000 </r>
       <r>   50.3231    0.0000 </r>
       <r>   51.5390    0.0000 </r>
       <r>   52.4622    0.0000 </r>
       <r>   53.7935    0.0000 </r>
      </set>
      <set comment="kpoint 13">
       <r>  -19.7413    1.0000 </r>
       <r>  -19.7413    1.0000 </r>
       <r>  -19.6536    1.0000 </r>
       <r>  -19.6536    1.0000 </r>
       <r>  -19.5508    1.0000 </r>
       <r>  -19.5508    1.0000 </r>
       <r>  -19.4913    1.0000 </r>
       <r>  -19.4913    1.0000 </r>
       <r>  -19.3949    1.0000 </r>
       <r>  -19.3949    1.0000 </r>
       <r>   -3.8074    1.0000 </r>
       <r>   -3.8074    1.0000 </r>
       <r>    2.0080    1.0000 </r>
       <r>    2.0080    1.0000 </r>
       <r>    5.8650    0.0000 </r>
       <r>    5.8650    0.0000 </r>
       <r>   14.7548    0.0000 </r>
       <r>   14.7548    0.0000 </r>
       <r>   16.8750    0.0000 </r>
       <r>   16.8750    0.0000 </r>
       <r>   18.0444    0.0000 </r>
       <r>   18.0444    0.0000 </r>
       <r>   18.9522    0.0000 </r>
       <r>   18.9522    0.0000 </r>
       <r>   24.2844    0.0000 </r>
       <r>   24.2844    0.0000 </r>
       <r>   24.3341    0.0000 </r>
       <r>   24.3341    0.0000 </r>
       <r>   24.6467    0.0000 </r>
       <r>   24.6467    0.0000 </r>
       <r>   25.3851    0.0000 </r>
       <r>   25.3851    0.0000 </r>
       <r>   34.1441    0.0000 </r>
       <r>   34.1441    0.0000 </r>
       <r>   35.1015    0.0000 </r>
       <r>   35.1015    0.0000 </r>
       <r>   37.1438    0.0000 </r>
       <r>   37.1442    0.0000 </r>
       <r>   38.7505    0.0000 </r>
       <r>   38.7505    0.0000 </r>
       <r>   39.9592    0.0000 </r>
       <r>   39.9615    0.0000 </r>
       <r>   41.2346    0.0000 </r>
       <r>   41.2354    0.0000 </r>
       <r>   42.7806    0.0000 </r>
       <r>   42.7836    0.0000 </r>
       <r>   44.5180    0.0000 </r>
       <r>   44.5266    0.0000 </r>
       <r>   45.4367    0.0000 </r>
       <r>   45.4609    0.0000 </r>
       <r>   52.6200    0.0000 </r>
       <r>   52.9274    0.0000 </r>
       <r>   53.8634    0.0000 </r>
       <r>   54.2233    0.0000 </r>
      </set>
      <set comment="kpoint 14">
       <r>  -19.7470    1.0000 </r>
       <r>  -19.7439    1.0000 </r>
       <r>  -19.6663    1.0000 </r>
       <r>  -19.6109    1.0000 </r>
       <r>  -19.5751    1.0000 </r>
       <r>  -19.5585    1.0000 </r>
       <r>  -19.4979    1.0000 </r>
       <r>  -19.4793    1.0000 </r>
       <r>  -19.3953    1.0000 </r>
       <r>  -19.3940    1.0000 </r>
       <r>   -5.5960    1.0000 </r>
       <r>   -1.6591    1.0000 </r>
       <r>    1.3799    1.0000 </r>
       <r>    2.6467    1.0000 </r>
       <r>    7.9338    0.0000 </r>
       <r>    8.3729    0.0000 </r>
       <r>    9.4921    0.0000 </r>
       <r>   12.2851    0.0000 </r>
       <r>   14.4771    0.0000 </r>
       <r>   15.1505    0.0000 </r>
       <r>   17.6358    0.0000 </r>
       <r>   18.2858    0.0000 </r>
       <r>   19.1115    0.0000 </r>
       <r>   21.3965    0.0000 </r>
       <r>   21.5845    0.0000 </r>
       <r>   23.3845    0.0000 </r>
       <r>   24.8444    0.0000 </r>
       <r>   27.0760    0.0000 </r>
       <r>   27.3746    0.0000 </r>
       <r>   27.8708    0.0000 </r>
       <r>   28.5369    0.0000 </r>
       <r>   30.0005    0.0000 </r>
       <r>   30.7993    0.0000 </r>
       <r>   32.7355    0.0000 </r>
       <r>   33.4142    0.0000 </r>
       <r>   34.4607    0.0000 </r>
       <r>   35.2812    0.0000 </r>
       <r>   36.3403    0.0000 </r>
       <r>   36.3978    0.0000 </r>
       <r>   39.7319    0.0000 </r>
       <r>   39.9720    0.0000 </r>
       <r>   40.5199    0.0000 </r>
       <r>   41.3957    0.0000 </r>
       <r>   42.6467    0.0000 </r>
       <r>   45.2465    0.0000 </r>
       <r>   45.4973    0.0000 </r>
       <r>   46.0169    0.0000 </r>
       <r>   46.4584    0.0000 </r>
       <r>   47.4084    0.0000 </r>
       <r>   47.8726    0.0000 </r>
       <r>   48.7914    0.0000 </r>
       <r>   49.3098    0.0000 </r>
       <r>   50.7906    0.0000 </r>
       <r>   53.2155    0.0000 </r>
      </set>
      <set comment="kpoint 15">
       <r>  -19.7573    1.0000 </r>
       <r>  -19.7467    1.0000 </r>
       <r>  -19.6435    1.0000 </r>
       <r>  -19.5920    1.0000 </r>
       <r>  -19.5684    1.0000 </r>
       <r>  -19.5602    1.0000 </r>
       <r>  -19.5255    1.0000 </r>
       <r>  -19.4978    1.0000 </r>
       <r>  -19.3914    1.0000 </r>
       <r>  -19.3815    1.0000 </r>
       <r>   -4.7137    1.0000 </r>
       <r>   -2.7781    1.0000 </r>
       <r>    0.9232    1.0000 </r>
       <r>    2.2035    1.0000 </r>
       <r>    8.1942    0.0000 </r>
       <r>    8.7549    0.0000 </r>
       <r>   11.2588    0.0000 </r>
       <r>   11.2748    0.0000 </r>
       <r>   13.2571    0.0000 </r>
       <r>   17.0131    0.0000 </r>
       <r>   17.1535    0.0000 </r>
       <r>   17.7455    0.0000 </r>
       <r>   21.5425    0.0000 </r>
       <r>   22.0963    0.0000 </r>
       <r>   22.8982    0.0000 </r>
       <r>   23.7805    0.0000 </r>
       <r>   24.2214    0.0000 </r>
       <r>   26.6113    0.0000 </r>
       <r>   27.0775    0.0000 </r>
       <r>   27.5837    0.0000 </r>
       <r>   28.0473    0.0000 </r>
       <r>   29.5018    0.0000 </r>
       <r>   30.0947    0.0000 </r>
       <r>   30.7823    0.0000 </r>
       <r>   32.1547    0.0000 </r>
       <r>   33.3378    0.0000 </r>
       <r>   34.9361    0.0000 </r>
       <r>   35.2286    0.0000 </r>
       <r>   35.4924    0.0000 </r>
       <r>   35.9537    0.0000 </r>
       <r>   40.6181    0.0000 </r>
       <r>   41.2516    0.0000 </r>
       <r>   44.1166    0.0000 </r>
       <r>   44.1336    0.0000 </r>
       <r>   44.9480    0.0000 </r>
       <r>   45.2676    0.0000 </r>
       <r>   46.5443    0.0000 </r>
       <r>   47.7277    0.0000 </r>
       <r>   47.9216    0.0000 </r>
       <r>   48.3792    0.0000 </r>
       <r>   48.7715    0.0000 </r>
       <r>   51.6135    0.0000 </r>
       <r>   52.4316    0.0000 </r>
       <r>   54.0986    0.0000 </r>
      </set>
      <set comment="kpoint 16">
       <r>  -19.7526    1.0000 </r>
       <r>  -19.7526    1.0000 </r>
       <r>  -19.6228    1.0000 </r>
       <r>  -19.6228    1.0000 </r>
       <r>  -19.5546    1.0000 </r>
       <r>  -19.5546    1.0000 </r>
       <r>  -19.5168    1.0000 </r>
       <r>  -19.5168    1.0000 </r>
       <r>  -19.3850    1.0000 </r>
       <r>  -19.3850    1.0000 </r>
       <r>   -3.7321    1.0000 </r>
       <r>   -3.7321    1.0000 </r>
       <r>    1.3390    1.0000 </r>
       <r>    1.3390    1.0000 </r>
       <r>    7.8413    0.0000 </r>
       <r>    7.8413    0.0000 </r>
       <r>   11.7623    0.0000 </r>
       <r>   11.7623    0.0000 </r>
       <r>   16.2779    0.0000 </r>
       <r>   16.2780    0.0000 </r>
       <r>   18.1698    0.0000 </r>
       <r>   18.1698    0.0000 </r>
       <r>   22.0335    0.0000 </r>
       <r>   22.0335    0.0000 </r>
       <r>   22.3713    0.0000 </r>
       <r>   22.3713    0.0000 </r>
       <r>   23.7813    0.0000 </r>
       <r>   23.7813    0.0000 </r>
       <r>   27.5989    0.0000 </r>
       <r>   27.5989    0.0000 </r>
       <r>   28.7794    0.0000 </r>
       <r>   28.7794    0.0000 </r>
       <r>   29.4034    0.0000 </r>
       <r>   29.4034    0.0000 </r>
       <r>   32.9021    0.0000 </r>
       <r>   32.9022    0.0000 </r>
       <r>   34.9584    0.0000 </r>
       <r>   34.9585    0.0000 </r>
       <r>   38.8153    0.0000 </r>
       <r>   38.8159    0.0000 </r>
       <r>   40.3843    0.0000 </r>
       <r>   40.3884    0.0000 </r>
       <r>   41.9822    0.0000 </r>
       <r>   41.9961    0.0000 </r>
       <r>   44.9754    0.0000 </r>
       <r>   44.9886    0.0000 </r>
       <r>   47.1123    0.0000 </r>
       <r>   47.2214    0.0000 </r>
       <r>   48.1130    0.0000 </r>
       <r>   48.3917    0.0000 </r>
       <r>   52.3085    0.0000 </r>
       <r>   52.8783    0.0000 </r>
       <r>   53.2215    0.0000 </r>
       <r>   53.6760    0.0000 </r>
      </set>
     </set>
     <set comment="spin 2">
      <set comment="kpoint 1">
       <r>  -19.7061    1.0000 </r>
       <r>  -19.7061    1.0000 </r>
       <r>  -19.7061    1.0000 </r>
       <r>  -19.6699    1.0000 </r>
       <r>  -19.6699    1.0000 </r>
       <r>  -19.4514    1.0000 </r>
       <r>  -19.4514    1.0000 </r>
       <r>  -19.4514    1.0000 </r>
       <r>  -19.4373    1.0000 </r>
       <r>  -19.4373    1.0000 </r>
       <r>   -7.7448    1.0000 </r>
       <r>    5.1289    0.9926 </r>
       <r>    5.1289    0.9926 </r>
       <r>    5.1289    0.9926 </r>
       <r>    5.2856    0.0222 </r>
       <r>    7.6858    0.0000 </r>
       <r>    7.6858    0.0000 </r>
       <r>    7.6858    0.0000 </r>
       <r>   11.5902    0.0000 </r>
       <r>   14.6438    0.0000 </r>
       <r>   14.6438    0.0000 </r>
       <r>   15.9534    0.0000 </r>
       <r>   15.9534    0.0000 </r>
       <r>   15.9534    0.0000 </r>
       <r>   19.0274    0.0000 </r>
       <r>   30.6115    0.0000 </r>
       <r>   30.6115    0.0000 </r>
       <r>   30.6115    0.0000 </r>
       <r>   31.2630    0.0000 </r>
       <r>   31.2630    0.0000 </r>
       <r>   31.2630    0.0000 </r>
       <r>   31.8323    0.0000 </r>
       <r>   31.8323    0.0000 </r>
       <r>   31.8323    0.0000 </r>
       <r>   32.8662    0.0000 </r>
       <r>   32.8662    0.0000 </r>
       <r>   39.8697    0.0000 </r>
       <r>   44.1714    0.0000 </r>
       <r>   44.7299    0.0000 </r>
       <r>   44.7963    0.0000 </r>
       <r>   44.9056    0.0000 </r>
       <r>   45.2019    0.0000 </r>
       <r>   45.3090    0.0000 </r>
       <r>   45.4097    0.0000 </r>
       <r>   46.0411    0.0000 </r>
       <r>   46.0866    0.0000 </r>
       <r>   46.2888    0.0000 </r>
       <r>   46.5670    0.0000 </r>
       <r>   46.6295    0.0000 </r>
       <r>   46.6774    0.0000 </r>
       <r>   47.1616    0.0000 </r>
       <r>   47.4113    0.0000 </r>
       <r>   47.6236    0.0000 </r>
       <r>   47.7212    0.0000 </r>
      </set>
      <set comment="kpoint 2">
       <r>  -19.7187    1.0000 </r>
       <r>  -19.7186    1.0000 </r>
       <r>  -19.7019    1.0000 </r>
       <r>  -19.6517    1.0000 </r>
       <r>  -19.6517    1.0000 </r>
       <r>  -19.4690    1.0000 </r>
       <r>  -19.4690    1.0000 </r>
       <r>  -19.4567    1.0000 </r>
       <r>  -19.4228    1.0000 </r>
       <r>  -19.4228    1.0000 </r>
       <r>   -7.4041    1.0000 </r>
       <r>    1.9666    1.0000 </r>
       <r>    4.5976    1.0000 </r>
       <r>    4.5976    1.0000 </r>
       <r>    6.1419    0.0000 </r>
       <r>    8.3882    0.0000 </r>
       <r>    8.3882    0.0000 </r>
       <r>    9.3500    0.0000 </r>
       <r>   12.9963    0.0000 </r>
       <r>   13.4977    0.0000 </r>
       <r>   13.4977    0.0000 </r>
       <r>   15.1623    0.0000 </r>
       <r>   18.4241    0.0000 </r>
       <r>   18.4241    0.0000 </r>
       <r>   21.2981    0.0000 </r>
       <r>   26.0089    0.0000 </r>
       <r>   26.0089    0.0000 </r>
       <r>   26.2463    0.0000 </r>
       <r>   31.1650    0.0000 </r>
       <r>   31.1650    0.0000 </r>
       <r>   31.5448    0.0000 </r>
       <r>   32.6224    0.0000 </r>
       <r>   32.6224    0.0000 </r>
       <r>   35.0425    0.0000 </r>
       <r>   38.1125    0.0000 </r>
       <r>   38.1162    0.0000 </r>
       <r>   38.1468    0.0000 </r>
       <r>   39.1663    0.0000 </r>
       <r>   39.1698    0.0000 </r>
       <r>   41.7137    0.0000 </r>
       <r>   41.8704    0.0000 </r>
       <r>   41.8862    0.0000 </r>
       <r>   42.6209    0.0000 </r>
       <r>   42.6472    0.0000 </r>
       <r>   42.6880    0.0000 </r>
       <r>   42.7895    0.0000 </r>
       <r>   44.8518    0.0000 </r>
       <r>   45.8885    0.0000 </r>
       <r>   45.9844    0.0000 </r>
       <r>   46.3237    0.0000 </r>
       <r>   47.5566    0.0000 </r>
       <r>   47.9953    0.0000 </r>
       <r>   48.5647    0.0000 </r>
       <r>   50.9028    0.0000 </r>
      </set>
      <set comment="kpoint 3">
       <r>  -19.7292    1.0000 </r>
       <r>  -19.7292    1.0000 </r>
       <r>  -19.6929    1.0000 </r>
       <r>  -19.6319    1.0000 </r>
       <r>  -19.6319    1.0000 </r>
       <r>  -19.4836    1.0000 </r>
       <r>  -19.4836    1.0000 </r>
       <r>  -19.4673    1.0000 </r>
       <r>  -19.4121    1.0000 </r>
       <r>  -19.4121    1.0000 </r>
       <r>   -6.4584    1.0000 </r>
       <r>   -0.9956    1.0000 </r>
       <r>    3.9437    1.0000 </r>
       <r>    3.9437    1.0000 </r>
       <r>    5.5820    0.0000 </r>
       <r>    8.9191    0.0000 </r>
       <r>    8.9191    0.0000 </r>
       <r>   12.2334    0.0000 </r>
       <r>   13.0319    0.0000 </r>
       <r>   14.1365    0.0000 </r>
       <r>   14.1365    0.0000 </r>
       <r>   17.6621    0.0000 </r>
       <r>   21.0794    0.0000 </r>
       <r>   21.0794    0.0000 </r>
       <r>   22.2025    0.0000 </r>
       <r>   22.4642    0.0000 </r>
       <r>   22.4642    0.0000 </r>
       <r>   25.5653    0.0000 </r>
       <r>   31.4622    0.0000 </r>
       <r>   32.0663    0.0000 </r>
       <r>   32.0663    0.0000 </r>
       <r>   32.2544    0.0000 </r>
       <r>   32.8542    0.0000 </r>
       <r>   32.8542    0.0000 </r>
       <r>   33.4344    0.0000 </r>
       <r>   33.4344    0.0000 </r>
       <r>   36.3866    0.0000 </r>
       <r>   38.0296    0.0000 </r>
       <r>   38.9620    0.0000 </r>
       <r>   38.9623    0.0000 </r>
       <r>   39.3037    0.0000 </r>
       <r>   39.3054    0.0000 </r>
       <r>   39.7112    0.0000 </r>
       <r>   40.9296    0.0000 </r>
       <r>   44.0660    0.0000 </r>
       <r>   44.9192    0.0000 </r>
       <r>   44.9637    0.0000 </r>
       <r>   45.8635    0.0000 </r>
       <r>   45.9110    0.0000 </r>
       <r>   47.1750    0.0000 </r>
       <r>   47.2532    0.0000 </r>
       <r>   47.5418    0.0000 </r>
       <r>   48.8024    0.0000 </r>
       <r>   53.0372    0.0000 </r>
      </set>
      <set comment="kpoint 4">
       <r>  -19.7317    1.0000 </r>
       <r>  -19.7317    1.0000 </r>
       <r>  -19.6881    1.0000 </r>
       <r>  -19.6264    1.0000 </r>
       <r>  -19.6264    1.0000 </r>
       <r>  -19.4870    1.0000 </r>
       <r>  -19.4870    1.0000 </r>
       <r>  -19.4728    1.0000 </r>
       <r>  -19.4094    1.0000 </r>
       <r>  -19.4094    1.0000 </r>
       <r>   -5.6227    1.0000 </r>
       <r>   -2.5300    1.0000 </r>
       <r>    3.7026    1.0000 </r>
       <r>    3.7026    1.0000 </r>
       <r>    5.3538    0.0000 </r>
       <r>    8.8817    0.0000 </r>
       <r>    8.8817    0.0000 </r>
       <r>   12.2692    0.0000 </r>
       <r>   15.7883    0.0000 </r>
       <r>   16.3802    0.0000 </r>
       <r>   16.4214    0.0000 </r>
       <r>   16.4214    0.0000 </r>
       <r>   17.6709    0.0000 </r>
       <r>   17.6709    0.0000 </r>
       <r>   24.0274    0.0000 </r>
       <r>   26.2474    0.0000 </r>
       <r>   26.8633    0.0000 </r>
       <r>   26.8633    0.0000 </r>
       <r>   27.6114    0.0000 </r>
       <r>   27.6114    0.0000 </r>
       <r>   30.6810    0.0000 </r>
       <r>   31.2804    0.0000 </r>
       <r>   32.7424    0.0000 </r>
       <r>   32.7849    0.0000 </r>
       <r>   32.7849    0.0000 </r>
       <r>   34.0183    0.0000 </r>
       <r>   34.0183    0.0000 </r>
       <r>   37.7001    0.0000 </r>
       <r>   37.7001    0.0000 </r>
       <r>   37.7836    0.0000 </r>
       <r>   37.7836    0.0000 </r>
       <r>   38.4622    0.0000 </r>
       <r>   38.5276    0.0000 </r>
       <r>   39.4775    0.0000 </r>
       <r>   43.6851    0.0000 </r>
       <r>   45.7533    0.0000 </r>
       <r>   45.7781    0.0000 </r>
       <r>   46.3503    0.0000 </r>
       <r>   46.3785    0.0000 </r>
       <r>   47.6460    0.0000 </r>
       <r>   52.4007    0.0000 </r>
       <r>   53.0987    0.0000 </r>
       <r>   54.0909    0.0000 </r>
       <r>   55.0792    0.0000 </r>
      </set>
      <set comment="kpoint 5">
       <r>  -19.7161    1.0000 </r>
       <r>  -19.7161    1.0000 </r>
       <r>  -19.7160    1.0000 </r>
       <r>  -19.6536    1.0000 </r>
       <r>  -19.6307    1.0000 </r>
       <r>  -19.5041    1.0000 </r>
       <r>  -19.4522    1.0000 </r>
       <r>  -19.4364    1.0000 </r>
       <r>  -19.4364    1.0000 </r>
       <r>  -19.4201    1.0000 </r>
       <r>   -7.2872    1.0000 </r>
       <r>    1.9791    1.0000 </r>
       <r>    3.8171    1.0000 </r>
       <r>    3.8171    1.0000 </r>
       <r>    6.7033    0.0000 </r>
       <r>    7.9519    0.0000 </r>
       <r>    9.5708    0.0000 </r>
       <r>    9.5708    0.0000 </r>
       <r>   12.0199    0.0000 </r>
       <r>   13.5918    0.0000 </r>
       <r>   15.1196    0.0000 </r>
       <r>   16.9046    0.0000 </r>
       <r>   16.9046    0.0000 </r>
       <r>   17.8068    0.0000 </r>
       <r>   22.7213    0.0000 </r>
       <r>   25.6237    0.0000 </r>
       <r>   25.6237    0.0000 </r>
       <r>   26.6743    0.0000 </r>
       <r>   27.0436    0.0000 </r>
       <r>   31.4690    0.0000 </r>
       <r>   31.4691    0.0000 </r>
       <r>   32.2756    0.0000 </r>
       <r>   35.0363    0.0000 </r>
       <r>   37.6396    0.0000 </r>
       <r>   37.6858    0.0000 </r>
       <r>   37.6884    0.0000 </r>
       <r>   38.0412    0.0000 </r>
       <r>   38.0418    0.0000 </r>
       <r>   38.3603    0.0000 </r>
       <r>   38.9248    0.0000 </r>
       <r>   41.5553    0.0000 </r>
       <r>   42.2466    0.0000 </r>
       <r>   42.3446    0.0000 </r>
       <r>   43.0390    0.0000 </r>
       <r>   43.7166    0.0000 </r>
       <r>   43.8685    0.0000 </r>
       <r>   44.4891    0.0000 </r>
       <r>   44.5962    0.0000 </r>
       <r>   45.2680    0.0000 </r>
       <r>   48.2773    0.0000 </r>
       <r>   48.7473    0.0000 </r>
       <r>   49.6719    0.0000 </r>
       <r>   49.9003    0.0000 </r>
       <r>   51.1579    0.0000 </r>
      </set>
      <set comment="kpoint 6">
       <r>  -19.7372    1.0000 </r>
       <r>  -19.7268    1.0000 </r>
       <r>  -19.6957    1.0000 </r>
       <r>  -19.6323    1.0000 </r>
       <r>  -19.6043    1.0000 </r>
       <r>  -19.5304    1.0000 </r>
       <r>  -19.4749    1.0000 </r>
       <r>  -19.4502    1.0000 </r>
       <r>  -19.4181    1.0000 </r>
       <r>  -19.4041    1.0000 </r>
       <r>   -6.5209    1.0000 </r>
       <r>   -0.3029    1.0000 </r>
       <r>    2.8130    1.0000 </r>
       <r>    3.1968    1.0000 </r>
       <r>    6.9106    0.0000 </r>
       <r>    8.2967    0.0000 </r>
       <r>   10.0836    0.0000 </r>
       <r>   10.4481    0.0000 </r>
       <r>   13.6914    0.0000 </r>
       <r>   14.9093    0.0000 </r>
       <r>   15.4566    0.0000 </r>
       <r>   17.2537    0.0000 </r>
       <r>   19.7458    0.0000 </r>
       <r>   21.0583    0.0000 </r>
       <r>   21.3849    0.0000 </r>
       <r>   21.5732    0.0000 </r>
       <r>   25.8638    0.0000 </r>
       <r>   26.6173    0.0000 </r>
       <r>   26.8970    0.0000 </r>
       <r>   28.3323    0.0000 </r>
       <r>   31.3412    0.0000 </r>
       <r>   32.2037    0.0000 </r>
       <r>   34.3684    0.0000 </r>
       <r>   34.3993    0.0000 </r>
       <r>   34.6330    0.0000 </r>
       <r>   35.7427    0.0000 </r>
       <r>   37.2132    0.0000 </r>
       <r>   37.5202    0.0000 </r>
       <r>   38.7074    0.0000 </r>
       <r>   39.2586    0.0000 </r>
       <r>   39.9663    0.0000 </r>
       <r>   40.0866    0.0000 </r>
       <r>   40.8876    0.0000 </r>
       <r>   41.8412    0.0000 </r>
       <r>   43.0668    0.0000 </r>
       <r>   44.0620    0.0000 </r>
       <r>   44.9927    0.0000 </r>
       <r>   46.4647    0.0000 </r>
       <r>   46.8242    0.0000 </r>
       <r>   47.5321    0.0000 </r>
       <r>   48.4912    0.0000 </r>
       <r>   49.1305    0.0000 </r>
       <r>   49.8751    0.0000 </r>
       <r>   51.2362    0.0000 </r>
      </set>
      <set comment="kpoint 7">
       <r>  -19.7487    1.0000 </r>
       <r>  -19.7352    1.0000 </r>
       <r>  -19.6712    1.0000 </r>
       <r>  -19.6125    1.0000 </r>
       <r>  -19.6037    1.0000 </r>
       <r>  -19.5250    1.0000 </r>
       <r>  -19.4976    1.0000 </r>
       <r>  -19.4777    1.0000 </r>
       <r>  -19.4048    1.0000 </r>
       <r>  -19.3916    1.0000 </r>
       <r>   -5.4470    1.0000 </r>
       <r>   -2.3199    1.0000 </r>
       <r>    1.9744    1.0000 </r>
       <r>    3.1298    1.0000 </r>
       <r>    6.7701    0.0000 </r>
       <r>    8.9465    0.0000 </r>
       <r>   10.1306    0.0000 </r>
       <r>   11.5875    0.0000 </r>
       <r>   14.4240    0.0000 </r>
       <r>   16.2463    0.0000 </r>
       <r>   16.4384    0.0000 </r>
       <r>   17.1238    0.0000 </r>
       <r>   18.2202    0.0000 </r>
       <r>   21.6949    0.0000 </r>
       <r>   23.3123    0.0000 </r>
       <r>   24.1466    0.0000 </r>
       <r>   25.5341    0.0000 </r>
       <r>   26.4320    0.0000 </r>
       <r>   27.6890    0.0000 </r>
       <r>   28.5753    0.0000 </r>
       <r>   28.9727    0.0000 </r>
       <r>   31.1313    0.0000 </r>
       <r>   31.1888    0.0000 </r>
       <r>   32.5234    0.0000 </r>
       <r>   32.7895    0.0000 </r>
       <r>   33.0112    0.0000 </r>
       <r>   34.2158    0.0000 </r>
       <r>   35.8901    0.0000 </r>
       <r>   37.4616    0.0000 </r>
       <r>   38.1678    0.0000 </r>
       <r>   38.8875    0.0000 </r>
       <r>   39.5758    0.0000 </r>
       <r>   41.6473    0.0000 </r>
       <r>   42.7130    0.0000 </r>
       <r>   42.7889    0.0000 </r>
       <r>   44.5952    0.0000 </r>
       <r>   44.9387    0.0000 </r>
       <r>   47.4722    0.0000 </r>
       <r>   48.9274    0.0000 </r>
       <r>   50.2056    0.0000 </r>
       <r>   50.7961    0.0000 </r>
       <r>   51.1715    0.0000 </r>
       <r>   52.0018    0.0000 </r>
       <r>   53.4477    0.0000 </r>
      </set>
      <set comment="kpoint 8">
       <r>  -19.7452    1.0000 </r>
       <r>  -19.7387    1.0000 </r>
       <r>  -19.6669    1.0000 </r>
       <r>  -19.6248    1.0000 </r>
       <r>  -19.6043    1.0000 </r>
       <r>  -19.5113    1.0000 </r>
       <r>  -19.4943    1.0000 </r>
       <r>  -19.4870    1.0000 </r>
       <r>  -19.3998    1.0000 </r>
       <r>  -19.3970    1.0000 </r>
       <r>   -5.7859    1.0000 </r>
       <r>   -1.7734    1.0000 </r>
       <r>    1.7632    1.0000 </r>
       <r>    3.6249    1.0000 </r>
       <r>    6.9178    0.0000 </r>
       <r>    9.2028    0.0000 </r>
       <r>    9.5982    0.0000 </r>
       <r>   11.9407    0.0000 </r>
       <r>   13.4999    0.0000 </r>
       <r>   14.3231    0.0000 </r>
       <r>   16.2246    0.0000 </r>
       <r>   18.0490    0.0000 </r>
       <r>   19.8393    0.0000 </r>
       <r>   21.6356    0.0000 </r>
       <r>   21.8276    0.0000 </r>
       <r>   23.3248    0.0000 </r>
       <r>   26.0716    0.0000 </r>
       <r>   27.4732    0.0000 </r>
       <r>   28.0748    0.0000 </r>
       <r>   28.5602    0.0000 </r>
       <r>   29.3299    0.0000 </r>
       <r>   29.4563    0.0000 </r>
       <r>   32.2278    0.0000 </r>
       <r>   32.6543    0.0000 </r>
       <r>   32.9880    0.0000 </r>
       <r>   33.3326    0.0000 </r>
       <r>   35.2093    0.0000 </r>
       <r>   37.0699    0.0000 </r>
       <r>   38.3230    0.0000 </r>
       <r>   38.9583    0.0000 </r>
       <r>   39.3247    0.0000 </r>
       <r>   39.4006    0.0000 </r>
       <r>   41.6336    0.0000 </r>
       <r>   41.8792    0.0000 </r>
       <r>   42.0196    0.0000 </r>
       <r>   44.8021    0.0000 </r>
       <r>   44.9734    0.0000 </r>
       <r>   45.9672    0.0000 </r>
       <r>   46.4383    0.0000 </r>
       <r>   48.3010    0.0000 </r>
       <r>   50.5995    0.0000 </r>
       <r>   51.8222    0.0000 </r>
       <r>   53.2349    0.0000 </r>
       <r>   54.3581    0.0000 </r>
      </set>
      <set comment="kpoint 9">
       <r>  -19.7330    1.0000 </r>
       <r>  -19.7282    1.0000 </r>
       <r>  -19.6897    1.0000 </r>
       <r>  -19.6422    1.0000 </r>
       <r>  -19.6234    1.0000 </r>
       <r>  -19.4978    1.0000 </r>
       <r>  -19.4830    1.0000 </r>
       <r>  -19.4535    1.0000 </r>
       <r>  -19.4203    1.0000 </r>
       <r>  -19.4057    1.0000 </r>
       <r>   -6.8508    1.0000 </r>
       <r>    0.4111    1.0000 </r>
       <r>    2.5430    1.0000 </r>
       <r>    4.4238    1.0000 </r>
       <r>    7.1179    0.0000 </r>
       <r>    8.7064    0.0000 </r>
       <r>    8.9374    0.0000 </r>
       <r>   10.3047    0.0000 </r>
       <r>   12.4578    0.0000 </r>
       <r>   14.5664    0.0000 </r>
       <r>   14.5746    0.0000 </r>
       <r>   17.0419    0.0000 </r>
       <r>   18.2428    0.0000 </r>
       <r>   21.0142    0.0000 </r>
       <r>   21.7929    0.0000 </r>
       <r>   24.0464    0.0000 </r>
       <r>   25.7113    0.0000 </r>
       <r>   26.3560    0.0000 </r>
       <r>   26.7085    0.0000 </r>
       <r>   28.3765    0.0000 </r>
       <r>   31.7857    0.0000 </r>
       <r>   33.8693    0.0000 </r>
       <r>   34.8136    0.0000 </r>
       <r>   35.1347    0.0000 </r>
       <r>   35.7447    0.0000 </r>
       <r>   35.9163    0.0000 </r>
       <r>   38.2416    0.0000 </r>
       <r>   38.6438    0.0000 </r>
       <r>   39.0570    0.0000 </r>
       <r>   39.4299    0.0000 </r>
       <r>   39.6451    0.0000 </r>
       <r>   40.6306    0.0000 </r>
       <r>   41.5153    0.0000 </r>
       <r>   41.5897    0.0000 </r>
       <r>   42.2085    0.0000 </r>
       <r>   42.2967    0.0000 </r>
       <r>   44.2831    0.0000 </r>
       <r>   44.3566    0.0000 </r>
       <r>   46.7735    0.0000 </r>
       <r>   47.1436    0.0000 </r>
       <r>   47.8131    0.0000 </r>
       <r>   48.8412    0.0000 </r>
       <r>   49.6285    0.0000 </r>
       <r>   51.5692    0.0000 </r>
      </set>
      <set comment="kpoint 10">
       <r>  -19.7334    1.0000 </r>
       <r>  -19.7334    1.0000 </r>
       <r>  -19.7018    1.0000 </r>
       <r>  -19.6095    1.0000 </r>
       <r>  -19.5810    1.0000 </r>
       <r>  -19.5618    1.0000 </r>
       <r>  -19.4932    1.0000 </r>
       <r>  -19.4385    1.0000 </r>
       <r>  -19.4081    1.0000 </r>
       <r>  -19.4081    1.0000 </r>
       <r>   -5.9419    1.0000 </r>
       <r>   -1.0820    1.0000 </r>
       <r>    2.4834    1.0000 </r>
       <r>    2.4834    1.0000 </r>
       <r>    5.7751    0.0000 </r>
       <r>    7.0980    0.0000 </r>
       <r>   12.5235    0.0000 </r>
       <r>   12.5235    0.0000 </r>
       <r>   13.7019    0.0000 </r>
       <r>   16.5518    0.0000 </r>
       <r>   17.0774    0.0000 </r>
       <r>   19.7896    0.0000 </r>
       <r>   19.7896    0.0000 </r>
       <r>   20.3058    0.0000 </r>
       <r>   20.8795    0.0000 </r>
       <r>   20.8795    0.0000 </r>
       <r>   22.3303    0.0000 </r>
       <r>   23.3834    0.0000 </r>
       <r>   29.4119    0.0000 </r>
       <r>   30.4878    0.0000 </r>
       <r>   30.5617    0.0000 </r>
       <r>   30.5617    0.0000 </r>
       <r>   31.6259    0.0000 </r>
       <r>   32.8374    0.0000 </r>
       <r>   32.8374    0.0000 </r>
       <r>   33.7095    0.0000 </r>
       <r>   36.8700    0.0000 </r>
       <r>   38.8541    0.0000 </r>
       <r>   39.0645    0.0000 </r>
       <r>   39.0648    0.0000 </r>
       <r>   41.8171    0.0000 </r>
       <r>   41.8311    0.0000 </r>
       <r>   42.6212    0.0000 </r>
       <r>   43.1636    0.0000 </r>
       <r>   43.3917    0.0000 </r>
       <r>   45.1232    0.0000 </r>
       <r>   45.1668    0.0000 </r>
       <r>   45.3368    0.0000 </r>
       <r>   45.4176    0.0000 </r>
       <r>   45.9013    0.0000 </r>
       <r>   46.0128    0.0000 </r>
       <r>   46.1516    0.0000 </r>
       <r>   47.9663    0.0000 </r>
       <r>   54.2038    0.0000 </r>
      </set>
      <set comment="kpoint 11">
       <r>  -19.7513    1.0000 </r>
       <r>  -19.7398    1.0000 </r>
       <r>  -19.6669    1.0000 </r>
       <r>  -19.6003    1.0000 </r>
       <r>  -19.5824    1.0000 </r>
       <r>  -19.5412    1.0000 </r>
       <r>  -19.5218    1.0000 </r>
       <r>  -19.4763    1.0000 </r>
       <r>  -19.3978    1.0000 </r>
       <r>  -19.3873    1.0000 </r>
       <r>   -4.8563    1.0000 </r>
       <r>   -2.5974    1.0000 </r>
       <r>    1.3328    1.0000 </r>
       <r>    2.3240    1.0000 </r>
       <r>    6.1664    0.0000 </r>
       <r>    7.8081    0.0000 </r>
       <r>   12.2314    0.0000 </r>
       <r>   12.8197    0.0000 </r>
       <r>   15.6438    0.0000 </r>
       <r>   16.8660    0.0000 </r>
       <r>   17.2500    0.0000 </r>
       <r>   18.9289    0.0000 </r>
       <r>   19.1358    0.0000 </r>
       <r>   21.5109    0.0000 </r>
       <r>   22.6116    0.0000 </r>
       <r>   22.8603    0.0000 </r>
       <r>   23.6736    0.0000 </r>
       <r>   24.6415    0.0000 </r>
       <r>   25.3847    0.0000 </r>
       <r>   27.8559    0.0000 </r>
       <r>   28.0592    0.0000 </r>
       <r>   29.0350    0.0000 </r>
       <r>   30.6885    0.0000 </r>
       <r>   32.6131    0.0000 </r>
       <r>   33.6376    0.0000 </r>
       <r>   34.1783    0.0000 </r>
       <r>   36.0945    0.0000 </r>
       <r>   36.5494    0.0000 </r>
       <r>   38.0955    0.0000 </r>
       <r>   38.7854    0.0000 </r>
       <r>   39.0580    0.0000 </r>
       <r>   40.3813    0.0000 </r>
       <r>   41.7081    0.0000 </r>
       <r>   42.2097    0.0000 </r>
       <r>   43.3568    0.0000 </r>
       <r>   45.2165    0.0000 </r>
       <r>   46.0258    0.0000 </r>
       <r>   46.8978    0.0000 </r>
       <r>   47.0189    0.0000 </r>
       <r>   48.5236    0.0000 </r>
       <r>   49.0624    0.0000 </r>
       <r>   51.6402    0.0000 </r>
       <r>   52.9988    0.0000 </r>
       <r>   53.4105    0.0000 </r>
      </set>
      <set comment="kpoint 12">
       <r>  -19.7599    1.0000 </r>
       <r>  -19.7427    1.0000 </r>
       <r>  -19.6508    1.0000 </r>
       <r>  -19.5781    1.0000 </r>
       <r>  -19.5719    1.0000 </r>
       <r>  -19.5580    1.0000 </r>
       <r>  -19.5379    1.0000 </r>
       <r>  -19.4925    1.0000 </r>
       <r>  -19.3944    1.0000 </r>
       <r>  -19.3793    1.0000 </r>
       <r>   -4.7190    1.0000 </r>
       <r>   -2.7458    1.0000 </r>
       <r>    0.6083    1.0000 </r>
       <r>    2.7814    1.0000 </r>
       <r>    6.5692    0.0000 </r>
       <r>   10.9506    0.0000 </r>
       <r>   11.5960    0.0000 </r>
       <r>   11.6251    0.0000 </r>
       <r>   12.3688    0.0000 </r>
       <r>   14.0889    0.0000 </r>
       <r>   18.8065    0.0000 </r>
       <r>   19.0545    0.0000 </r>
       <r>   21.0223    0.0000 </r>
       <r>   22.3359    0.0000 </r>
       <r>   23.1496    0.0000 </r>
       <r>   23.9972    0.0000 </r>
       <r>   24.0157    0.0000 </r>
       <r>   26.3273    0.0000 </r>
       <r>   27.0914    0.0000 </r>
       <r>   27.5367    0.0000 </r>
       <r>   27.5559    0.0000 </r>
       <r>   27.9448    0.0000 </r>
       <r>   30.8836    0.0000 </r>
       <r>   31.5335    0.0000 </r>
       <r>   31.6661    0.0000 </r>
       <r>   33.4231    0.0000 </r>
       <r>   33.4873    0.0000 </r>
       <r>   36.2427    0.0000 </r>
       <r>   38.3845    0.0000 </r>
       <r>   39.1821    0.0000 </r>
       <r>   39.2660    0.0000 </r>
       <r>   39.8726    0.0000 </r>
       <r>   40.1906    0.0000 </r>
       <r>   40.5505    0.0000 </r>
       <r>   45.8806    0.0000 </r>
       <r>   47.0497    0.0000 </r>
       <r>   47.6179    0.0000 </r>
       <r>   48.6974    0.0000 </r>
       <r>   49.0231    0.0000 </r>
       <r>   50.6005    0.0000 </r>
       <r>   51.0603    0.0000 </r>
       <r>   51.4807    0.0000 </r>
       <r>   52.2942    0.0000 </r>
       <r>   53.0964    0.0000 </r>
      </set>
      <set comment="kpoint 13">
       <r>  -19.7413    1.0000 </r>
       <r>  -19.7413    1.0000 </r>
       <r>  -19.6536    1.0000 </r>
[...]
        <r>  0.0068  0.0410  0.0512  0.0512  0.0085  0.0085  0.0255  0.0094  0.0467 </r>
       </set>
       <set comment="band 24">
        <r>  0.0000  0.0005  0.0351  0.0351  0.0029  0.0029  0.0242  0.0630  0.0220 </r>
        <r>  0.0000  0.0005  0.0351  0.0351  0.0029  0.0029  0.0242  0.0630  0.0220 </r>
       </set>
       <set comment="band 25">
        <r>  0.0061  0.0099  0.0074  0.0074  0.0111  0.0111  0.0532  0.0229  0.0443 </r>
        <r>  0.0061  0.0099  0.0074  0.0074  0.0111  0.0111  0.0532  0.0229  0.0443 </r>
       </set>
       <set comment="band 26">
        <r>  0.0188  0.0360  0.0041  0.0041  0.0664  0.0664  0.0031  0.0381  0.0030 </r>
        <r>  0.0188  0.0360  0.0041  0.0041  0.0665  0.0664  0.0031  0.0382  0.0030 </r>
       </set>
       <set comment="band 27">
        <r>  0.0231  0.0114  0.0025  0.0025  0.0226  0.0226  0.0660  0.0714  0.0311 </r>
        <r>  0.0231  0.0114  0.0025  0.0025  0.0226  0.0226  0.0660  0.0714  0.0311 </r>
       </set>
       <set comment="band 28">
        <r>  0.0024  0.0000  0.0194  0.0194  0.0442  0.0442  0.0133  0.0628  0.0090 </r>
        <r>  0.0024  0.0000  0.0194  0.0194  0.0442  0.0442  0.0133  0.0628  0.0090 </r>
       </set>
       <set comment="band 29">
        <r>  0.0028  0.0180  0.0083  0.0083  0.0562  0.0562  0.0115  0.0064  0.0271 </r>
        <r>  0.0028  0.0180  0.0083  0.0083  0.0562  0.0562  0.0115  0.0064  0.0271 </r>
       </set>
       <set comment="band 30">
        <r>  0.0145  0.0135  0.0207  0.0207  0.0373  0.0373  0.0458  0.0234  0.0153 </r>
        <r>  0.0145  0.0135  0.0207  0.0207  0.0373  0.0373  0.0458  0.0234  0.0153 </r>
       </set>
       <set comment="band 31">
        <r>  0.0165  0.0593  0.0034  0.0034  0.0716  0.0716  0.0349  0.0025  0.0286 </r>
        <r>  0.0164  0.0593  0.0034  0.0034  0.0716  0.0715  0.0349  0.0025  0.0286 </r>
       </set>
       <set comment="band 32">
        <r>  0.0096  0.0142  0.0019  0.0019  0.0288  0.0288  0.0129  0.0114  0.0043 </r>
        <r>  0.0096  0.0142  0.0019  0.0019  0.0288  0.0288  0.0129  0.0114  0.0043 </r>
       </set>
       <set comment="band 33">
        <r>  0.0003  0.0071  0.0021  0.0021  0.0017  0.0017  0.0306  0.0072  0.0788 </r>
        <r>  0.0003  0.0071  0.0021  0.0021  0.0017  0.0017  0.0306  0.0072  0.0788 </r>
       </set>
       <set comment="band 34">
        <r>  0.0551  0.0017  0.0087  0.0087  0.0242  0.0242  0.0266  0.0035  0.0267 </r>
        <r>  0.0551  0.0017  0.0087  0.0087  0.0242  0.0242  0.0266  0.0035  0.0267 </r>
       </set>
       <set comment="band 35">
        <r>  0.0023  0.0285  0.0098  0.0098  0.0433  0.0434  0.0137  0.0149  0.0225 </r>
        <r>  0.0024  0.0286  0.0098  0.0098  0.0434  0.0433  0.0137  0.0149  0.0225 </r>
       </set>
       <set comment="band 36">
        <r>  0.0194  0.0025  0.0041  0.0041  0.0038  0.0038  0.0177  0.0117  0.0183 </r>
        <r>  0.0194  0.0025  0.0041  0.0041  0.0038  0.0038  0.0177  0.0117  0.0183 </r>
       </set>
       <set comment="band 37">
        <r>  0.0002  0.0026  0.0003  0.0003  0.0219  0.0219  0.0176  0.0003  0.0363 </r>
        <r>  0.0002  0.0027  0.0003  0.0003  0.0219  0.0219  0.0176  0.0003  0.0362 </r>
       </set>
       <set comment="band 38">
        <r>  0.0066  0.0011  0.0229  0.0229  0.0029  0.0029  0.0218  0.0268  0.0073 </r>
        <r>  0.0066  0.0011  0.0228  0.0229  0.0030  0.0030  0.0217  0.0269  0.0073 </r>
       </set>
       <set comment="band 39">
        <r>  0.0019  0.0030  0.0048  0.0049  0.0060  0.0060  0.0671  0.0067  0.0248 </r>
        <r>  0.0019  0.0030  0.0048  0.0049  0.0060  0.0060  0.0671  0.0066  0.0249 </r>
       </set>
       <set comment="band 40">
        <r>  0.0296  0.0011  0.0061  0.0061  0.0009  0.0009  0.0086  0.0081  0.0172 </r>
        <r>  0.0295  0.0011  0.0061  0.0061  0.0009  0.0009  0.0087  0.0081  0.0172 </r>
       </set>
       <set comment="band 41">
        <r>  0.0019  0.0423  0.0102  0.0097  0.0899  0.0907  0.0718  0.0179  0.0236 </r>
        <r>  0.0019  0.0418  0.0099  0.0103  0.0916  0.0903  0.0710  0.0179  0.0239 </r>
       </set>
       <set comment="band 42">
        <r>  0.0282  0.0043  0.0161  0.0154  0.0599  0.0607  0.0142  0.0007  0.0403 </r>
        <r>  0.0284  0.0043  0.0155  0.0154  0.0600  0.0603  0.0140  0.0008  0.0405 </r>
       </set>
       <set comment="band 43">
        <r>  0.0018  0.0008  0.0060  0.0017  0.0212  0.0202  0.0422  0.0045  0.0246 </r>
        <r>  0.0011  0.0011  0.0080  0.0035  0.0141  0.0124  0.0433  0.0060  0.0256 </r>
       </set>
       <set comment="band 44">
        <r>  0.0053  0.0052  0.0072  0.0113  0.0224  0.0194  0.0144  0.0040  0.0020 </r>
        <r>  0.0036  0.0049  0.0045  0.0104  0.0290  0.0256  0.0129  0.0031  0.0006 </r>
       </set>
       <set comment="band 45">
        <r>  0.0057  0.0002  0.0096  0.0098  0.0299  0.0323  0.0358  0.0014  0.0123 </r>
        <r>  0.0073  0.0001  0.0071  0.0084  0.0369  0.0372  0.0285  0.0023  0.0089 </r>
       </set>
       <set comment="band 46">
        <r>  0.0018  0.0183  0.0072  0.0084  0.0205  0.0268  0.0421  0.0087  0.0299 </r>
        <r>  0.0015  0.0186  0.0096  0.0106  0.0155  0.0169  0.0572  0.0062  0.0297 </r>
       </set>
       <set comment="band 47">
        <r>  0.0015  0.0014  0.0064  0.0066  0.0023  0.0037  0.0152  0.0068  0.0217 </r>
        <r>  0.0024  0.0020  0.0040  0.0040  0.0021  0.0032  0.0062  0.0062  0.0226 </r>
       </set>
       <set comment="band 48">
        <r>  0.0021  0.0091  0.0008  0.0082  0.0799  0.0359  0.0017  0.0384  0.0302 </r>
        <r>  0.0006  0.0051  0.0015  0.0084  0.0800  0.0434  0.0026  0.0367  0.0333 </r>
       </set>
       <set comment="band 49">
        <r>  0.0165  0.0008  0.0194  0.0227  0.0395  0.0704  0.0587  0.1595  0.0401 </r>
        <r>  0.0109  0.0005  0.0239  0.0276  0.0435  0.0710  0.0674  0.1381  0.0583 </r>
       </set>
       <set comment="band 50">
        <r>  0.0229  0.0249  0.0088  0.0063  0.0020  0.0229  0.0308  0.0032  0.0738 </r>
        <r>  0.0148  0.0236  0.0077  0.0020  0.0054  0.0181  0.0252  0.0018  0.0491 </r>
       </set>
       <set comment="band 51">
        <r>  0.0299  0.0410  0.0005  0.0000  0.0429  0.0271  0.0269  0.0054  0.0136 </r>
        <r>  0.0324  0.0285  0.0010  0.0000  0.0455  0.0366  0.0425  0.0084  0.0057 </r>
       </set>
       <set comment="band 52">
        <r>  0.0045  0.0044  0.0056  0.0200  0.0003  0.0036  0.0043  0.0208  0.0117 </r>
        <r>  0.0036  0.0036  0.0192  0.0057  0.0075  0.0024  0.0196  0.0095  0.0052 </r>
       </set>
       <set comment="band 53">
        <r>  0.0311  0.0036  0.0168  0.0020  0.0031  0.0271  0.0054  0.0272  0.0374 </r>
        <r>  0.0077  0.0162  0.0142  0.0009  0.0122  0.0392  0.0085  0.0136  0.0306 </r>
       </set>
       <set comment="band 54">
        <r>  0.0071  0.0076  0.0068  0.0097  0.0015  0.0106  0.0158  0.0435  0.0355 </r>
        <r>  0.0138  0.0073  0.0056  0.0123  0.0484  0.0023  0.0010  0.0371  0.0175 </r>
       </set>
      </set>
      <set comment="kpoint 16">
       <set comment="band 1">
        <r>  0.0000  0.0001  0.0000  0.0001  0.0811  0.1708  0.0199  0.2194  0.0049 </r>
        <r>  0.0000  0.0001  0.0000  0.0001  0.0812  0.1710  0.0199  0.2192  0.0049 </r>
       </set>
       <set comment="band 2">
        <r>  0.0000  0.0001  0.0000  0.0001  0.0812  0.1710  0.0199  0.2192  0.0049 </r>
        <r>  0.0000  0.0001  0.0000  0.0001  0.0811  0.1708  0.0199  0.2194  0.0049 </r>
       </set>
       <set comment="band 3">
        <r>  0.0005  0.0000  0.0000  0.0000  0.2177  0.0944  0.1528  0.0121  0.0199 </r>
        <r>  0.0005  0.0000  0.0000  0.0000  0.2158  0.0935  0.1541  0.0122  0.0200 </r>
       </set>
       <set comment="band 4">
        <r>  0.0005  0.0000  0.0000  0.0000  0.2158  0.0935  0.1541  0.0122  0.0200 </r>
        <r>  0.0005  0.0000  0.0000  0.0000  0.2177  0.0944  0.1528  0.0121  0.0199 </r>
       </set>
       <set comment="band 5">
        <r>  0.0000  0.0000  0.0000  0.0001  0.0009  0.0016  0.0494  0.0289  0.3436 </r>
        <r>  0.0000  0.0000  0.0000  0.0000  0.0007  0.0012  0.0665  0.0389  0.4631 </r>
       </set>
       <set comment="band 6">
        <r>  0.0000  0.0000  0.0000  0.0000  0.0007  0.0012  0.0665  0.0389  0.4631 </r>
        <r>  0.0000  0.0000  0.0000  0.0001  0.0009  0.0016  0.0493  0.0289  0.3436 </r>
       </set>
       <set comment="band 7">
        <r>  0.0003  0.0000  0.0001  0.0000  0.1245  0.0598  0.2391  0.0125  0.0616 </r>
        <r>  0.0003  0.0000  0.0001  0.0000  0.1239  0.0596  0.2402  0.0125  0.0619 </r>
       </set>
       <set comment="band 8">
        <r>  0.0003  0.0000  0.0001  0.0000  0.1239  0.0596  0.2402  0.0125  0.0619 </r>
        <r>  0.0003  0.0000  0.0001  0.0000  0.1245  0.0598  0.2391  0.0125  0.0616 </r>
       </set>
       <set comment="band 9">
        <r>  0.0000  0.0001  0.0000  0.0000  0.0763  0.1772  0.0255  0.2122  0.0073 </r>
        <r>  0.0000  0.0001  0.0000  0.0000  0.0712  0.1654  0.0273  0.2273  0.0078 </r>
       </set>
       <set comment="band 10">
        <r>  0.0000  0.0001  0.0000  0.0000  0.0712  0.1654  0.0273  0.2273  0.0078 </r>
        <r>  0.0000  0.0001  0.0000  0.0000  0.0763  0.1772  0.0255  0.2122  0.0073 </r>
       </set>
       <set comment="band 11">
        <r>  0.2926  0.0000  0.0400  0.0114  0.0053  0.0020  0.0003  0.0000  0.0000 </r>
        <r>  0.2895  0.0000  0.0404  0.0116  0.0054  0.0021  0.0003  0.0000  0.0000 </r>
       </set>
       <set comment="band 12">
        <r>  0.2895  0.0000  0.0404  0.0116  0.0054  0.0021  0.0003  0.0000  0.0000 </r>
        <r>  0.2926  0.0000  0.0400  0.0114  0.0053  0.0020  0.0003  0.0000  0.0000 </r>
       </set>
       <set comment="band 13">
        <r>  0.0012  0.1089  0.0380  0.0935  0.0001  0.0005  0.0035  0.0015  0.0008 </r>
        <r>  0.0012  0.1089  0.0380  0.0935  0.0001  0.0005  0.0035  0.0015  0.0008 </r>
       </set>
       <set comment="band 14">
        <r>  0.0012  0.1089  0.0380  0.0935  0.0001  0.0005  0.0035  0.0015  0.0008 </r>
        <r>  0.0012  0.1089  0.0380  0.0935  0.0001  0.0005  0.0035  0.0015  0.0008 </r>
       </set>
       <set comment="band 15">
        <r>  0.0800  0.0591  0.0205  0.0124  0.0118  0.0003  0.0359  0.0006  0.0006 </r>
        <r>  0.0189  0.0139  0.0871  0.0524  0.0499  0.0012  0.0085  0.0001  0.0001 </r>
       </set>
       <set comment="band 16">
        <r>  0.0189  0.0139  0.0871  0.0524  0.0499  0.0012  0.0085  0.0001  0.0001 </r>
        <r>  0.0800  0.0591  0.0205  0.0124  0.0118  0.0003  0.0359  0.0006  0.0006 </r>
       </set>
       <set comment="band 17">
        <r>  0.0061  0.0199  0.0678  0.0911  0.0053  0.0693  0.0006  0.0000  0.0039 </r>
        <r>  0.0490  0.1597  0.0085  0.0114  0.0007  0.0086  0.0051  0.0000  0.0311 </r>
       </set>
       <set comment="band 18">
        <r>  0.0490  0.1597  0.0085  0.0114  0.0007  0.0086  0.0051  0.0000  0.0311 </r>
        <r>  0.0061  0.0199  0.0678  0.0911  0.0053  0.0693  0.0006  0.0000  0.0039 </r>
       </set>
       <set comment="band 19">
        <r>  0.0020  0.0332  0.0873  0.1059  0.0080  0.0113  0.0001  0.0780  0.0000 </r>
        <r>  0.0025  0.0411  0.0707  0.0857  0.0065  0.0091  0.0001  0.0964  0.0000 </r>
       </set>
       <set comment="band 20">
        <r>  0.0025  0.0411  0.0707  0.0857  0.0065  0.0091  0.0001  0.0964  0.0000 </r>
        <r>  0.0020  0.0332  0.0873  0.1059  0.0080  0.0113  0.0001  0.0780  0.0000 </r>
       </set>
       <set comment="band 21">
        <r>  0.0262  0.0017  0.0097  0.0040  0.0006  0.0012  0.0161  0.0057  0.1599 </r>
        <r>  0.0019  0.0001  0.1323  0.0549  0.0085  0.0159  0.0012  0.0004  0.0117 </r>
       </set>
       <set comment="band 22">
        <r>  0.0019  0.0001  0.1323  0.0549  0.0085  0.0159  0.0012  0.0004  0.0117 </r>
        <r>  0.0262  0.0017  0.0097  0.0040  0.0006  0.0012  0.0161  0.0057  0.1599 </r>
       </set>
       <set comment="band 23">
        <r>  0.0004  0.0167  0.0067  0.0067  0.0043  0.0142  0.0420  0.0951  0.0041 </r>
        <r>  0.0003  0.0135  0.0083  0.0083  0.0053  0.0176  0.0339  0.0767  0.0033 </r>
       </set>
       <set comment="band 24">
        <r>  0.0003  0.0135  0.0083  0.0083  0.0053  0.0176  0.0338  0.0767  0.0033 </r>
        <r>  0.0004  0.0167  0.0067  0.0067  0.0043  0.0142  0.0420  0.0951  0.0041 </r>
       </set>
       <set comment="band 25">
        <r>  0.0064  0.0056  0.0396  0.0067  0.0003  0.0001  0.0022  0.0007  0.0303 </r>
        <r>  0.0162  0.0143  0.0155  0.0026  0.0001  0.0000  0.0056  0.0019  0.0772 </r>
       </set>
       <set comment="band 26">
        <r>  0.0163  0.0143  0.0156  0.0026  0.0001  0.0000  0.0056  0.0019  0.0772 </r>
        <r>  0.0064  0.0056  0.0396  0.0067  0.0003  0.0001  0.0022  0.0007  0.0304 </r>
       </set>
       <set comment="band 27">
        <r>  0.0391  0.0236  0.0070  0.0034  0.0085  0.0615  0.0536  0.0269  0.0384 </r>
        <r>  0.0189  0.0113  0.0145  0.0070  0.0177  0.1275  0.0259  0.0130  0.0185 </r>
       </set>
       <set comment="band 28">
        <r>  0.0189  0.0114  0.0145  0.0070  0.0177  0.1275  0.0258  0.0130  0.0185 </r>
        <r>  0.0391  0.0236  0.0070  0.0034  0.0085  0.0615  0.0536  0.0269  0.0384 </r>
       </set>
       <set comment="band 29">
        <r>  0.0038  0.0281  0.0094  0.0045  0.0001  0.1113  0.0330  0.0003  0.0002 </r>
        <r>  0.0092  0.0683  0.0039  0.0019  0.0000  0.0458  0.0803  0.0007  0.0005 </r>
       </set>
       <set comment="band 30">
        <r>  0.0092  0.0683  0.0039  0.0019  0.0000  0.0458  0.0803  0.0007  0.0005 </r>
        <r>  0.0038  0.0281  0.0094  0.0045  0.0001  0.1113  0.0331  0.0003  0.0002 </r>
       </set>
       <set comment="band 31">
        <r>  0.0000  0.0000  0.0118  0.0221  0.0009  0.0026  0.0009  0.0005  0.0001 </r>
        <r>  0.0002  0.0050  0.0001  0.0002  0.0000  0.0000  0.1245  0.0734  0.0157 </r>
       </set>
       <set comment="band 32">
        <r>  0.0002  0.0050  0.0001  0.0002  0.0000  0.0000  0.1245  0.0734  0.0157 </r>
        <r>  0.0000  0.0000  0.0117  0.0221  0.0009  0.0026  0.0009  0.0005  0.0001 </r>
       </set>
       <set comment="band 33">
        <r>  0.0208  0.0022  0.0055  0.0329  0.2047  0.0054  0.0094  0.0276  0.0026 </r>
        <r>  0.0223  0.0024  0.0051  0.0307  0.1909  0.0051  0.0100  0.0296  0.0028 </r>
       </set>
       <set comment="band 34">
        <r>  0.0223  0.0024  0.0051  0.0307  0.1908  0.0051  0.0100  0.0295  0.0028 </r>
        <r>  0.0208  0.0022  0.0055  0.0329  0.2047  0.0054  0.0094  0.0275  0.0026 </r>
       </set>
       <set comment="band 35">
        <r>  0.0075  0.0036  0.0025  0.0073  0.0261  0.0383  0.0012  0.0000  0.0005 </r>
        <r>  0.0689  0.0332  0.0003  0.0008  0.0028  0.0042  0.0115  0.0003  0.0045 </r>
       </set>
       <set comment="band 36">
        <r>  0.0689  0.0333  0.0003  0.0008  0.0028  0.0042  0.0115  0.0003  0.0045 </r>
        <r>  0.0075  0.0036  0.0025  0.0073  0.0261  0.0383  0.0012  0.0000  0.0005 </r>
       </set>
       <set comment="band 37">
        <r>  0.0041  0.0183  0.0004  0.0003  0.0001  0.0001  0.0019  0.0161  0.1385 </r>
        <r>  0.0005  0.0021  0.0034  0.0029  0.0013  0.0004  0.0002  0.0019  0.0159 </r>
       </set>
       <set comment="band 38">
        <r>  0.0005  0.0021  0.0034  0.0029  0.0013  0.0004  0.0002  0.0019  0.0159 </r>
        <r>  0.0041  0.0183  0.0004  0.0003  0.0001  0.0001  0.0019  0.0161  0.1385 </r>
       </set>
       <set comment="band 39">
        <r>  0.0029  0.0000  0.0024  0.0007  0.0019  0.0005  0.1858  0.0084  0.0000 </r>
        <r>  0.0002  0.0000  0.0383  0.0114  0.0299  0.0079  0.0119  0.0005  0.0000 </r>
       </set>
       <set comment="band 40">
        <r>  0.0002  0.0000  0.0386  0.0115  0.0299  0.0077  0.0117  0.0005  0.0000 </r>
        <r>  0.0028  0.0000  0.0024  0.0007  0.0019  0.0005  0.1858  0.0085  0.0000 </r>
       </set>
       <set comment="band 41">
        <r>  0.0001  0.0022  0.0062  0.0509  0.0079  0.0016  0.0002  0.0000  0.0072 </r>
        <r>  0.0006  0.0141  0.0009  0.0077  0.0012  0.0002  0.0011  0.0000  0.0454 </r>
       </set>
       <set comment="band 42">
        <r>  0.0006  0.0135  0.0008  0.0077  0.0011  0.0002  0.0014  0.0000  0.0467 </r>
        <r>  0.0001  0.0021  0.0061  0.0502  0.0076  0.0016  0.0003  0.0000  0.0070 </r>
       </set>
       <set comment="band 43">
        <r>  0.0350  0.0066  0.0000  0.0023  0.0398  0.0013  0.0610  0.0361  0.0088 </r>
        <r>  0.0041  0.0008  0.0002  0.0193  0.3368  0.0110  0.0074  0.0043  0.0010 </r>
       </set>
       <set comment="band 44">
        <r>  0.0037  0.0008  0.0005  0.0194  0.3387  0.0128  0.0061  0.0042  0.0006 </r>
        <r>  0.0324  0.0069  0.0000  0.0024  0.0405  0.0009  0.0619  0.0367  0.0093 </r>
       </set>
       <set comment="band 45">
        <r>  0.0067  0.0122  0.0000  0.0142  0.0047  0.0434  0.0297  0.0001  0.0058 </r>
        <r>  0.0340  0.0556  0.0000  0.0034  0.0013  0.0087  0.1396  0.0002  0.0268 </r>
       </set>
       <set comment="band 46">
        <r>  0.0336  0.0587  0.0003  0.0031  0.0015  0.0090  0.1401  0.0001  0.0190 </r>
        <r>  0.0078  0.0126  0.0001  0.0156  0.0038  0.0404  0.0295  0.0001  0.0047 </r>
       </set>
       <set comment="band 47">
        <r>  0.0063  0.0005  0.0035  0.0008  0.0046  0.0040  0.0014  0.0004  0.1778 </r>
        <r>  0.0024  0.0002  0.0112  0.0051  0.0168  0.0015  0.0000  0.0002  0.0288 </r>
       </set>
       <set comment="band 48">
        <r>  0.0041  0.0026  0.0080  0.0064  0.0153  0.0022  0.0009  0.0000  0.0323 </r>
        <r>  0.0036  0.0030  0.0011  0.0004  0.0034  0.0027  0.0000  0.0001  0.1758 </r>
       </set>
       <set comment="band 49">
        <r>  0.0325  0.0202  0.0003  0.0003  0.0000  0.0183  0.0042  0.0089  0.0042 </r>
        <r>  0.0022  0.0021  0.0168  0.0042  0.0006  0.2816  0.0003  0.0012  0.0008 </r>
       </set>
       <set comment="band 50">
        <r>  0.0004  0.0002  0.0146  0.0012  0.0022  0.2658  0.0002  0.0023  0.0060 </r>
        <r>  0.0385  0.0211  0.0055  0.0004  0.0004  0.0301  0.0019  0.0167  0.0172 </r>
       </set>
       <set comment="band 51">
        <r>  0.0004  0.0001  0.0245  0.0016  0.0094  0.0233  0.0300  0.0018  0.0683 </r>
        <r>  0.0063  0.0129  0.0261  0.0015  0.0052  0.0037  0.0050  0.0201  0.0491 </r>
       </set>
       <set comment="band 52">
        <r>  0.0092  0.0061  0.0080  0.0251  0.0127  0.0139  0.0011  0.0206  0.0275 </r>
        <r>  0.0026  0.0032  0.0008  0.0042  0.0076  0.0048  0.0269  0.1253  0.0806 </r>
       </set>
       <set comment="band 53">
        <r>  0.0175  0.0064  0.0011  0.0179  0.0098  0.0124  0.0004  0.0150  0.0022 </r>
        <r>  0.0242  0.0235  0.0040  0.0001  0.0218  0.0062  0.0012  0.0533  0.0046 </r>
       </set>
       <set comment="band 54">
        <r>  0.0104  0.0035  0.0058  0.0045  0.0027  0.0124  0.0481  0.1688  0.0543 </r>
        <r>  0.0006  0.0020  0.0120  0.0033  0.0330  0.0127  0.0013  0.0845  0.0042 </r>
       </set>
      </set>
     </set>
    </set>
   </array>
  </projected>
 </calculation>
 <structure name="finalpos" >
  <crystal>
   <varray name="basis" >
    <v>       0.00000000       2.81650000       2.81650000 </v>
    <v>       2.81650000       0.00000000       2.81650000 </v>
    <v>       2.81650000       2.81650000       0.00000000 </v>
   </varray>
   <i name="volume">     44.68474278 </i>
   <varray name="rec_basis" >
    <v>      -0.17752530       0.17752530       0.17752530 </v>
    <v>       0.17752530      -0.17752530       0.17752530 </v>
    <v>       0.17752530       0.17752530      -0.17752530 </v>
   </varray>
  </crystal>
  <varray name="positions" >
   <v>       0.00000000       0.00000000       0.00000000 </v>
   <v>       0.25000000       0.25000000       0.25000000 </v>
  </varray>
 </structure>
</modeling>
