   2   2   1   0
  0.2234237E+02  0.3983133E-09  0.3983133E-09  0.3983133E-09  0.5000000E-15
  1.000000000000000E-004
  CAR 
 unknown system                          
     69.72271964    -23.94049270  301      5.05607678      1.00000000
    -23.940  0.0000E+00  0.0000E+00  0.0000E+00  0.0000E+00
    -23.628  0.0000E+00  0.0000E+00  0.0000E+00  0.0000E+00
    -23.316  0.0000E+00  0.0000E+00  0.0000E+00  0.0000E+00
    -23.004  0.0000E+00  0.0000E+00  0.0000E+00  0.0000E+00
    -22.692  0.0000E+00  0.0000E+00  0.0000E+00  0.0000E+00
    -22.379  0.0000E+00  0.0000E+00  0.0000E+00  0.0000E+00
    -22.067  0.0000E+00  0.0000E+00  0.0000E+00  0.0000E+00
    -21.755  0.0000E+00  0.0000E+00  0.0000E+00  0.0000E+00
    -21.443  0.0000E+00  0.0000E+00  0.0000E+00  0.0000E+00
    -21.131  0.0000E+00  0.0000E+00  0.0000E+00  0.0000E+00
    -20.818  0.0000E+00  0.0000E+00  0.0000E+00  0.0000E+00
    -20.506  0.0000E+00  0.0000E+00  0.0000E+00  0.0000E+00
    -20.194  0.0000E+00  0.0000E+00  0.0000E+00  0.0000E+00
    -19.882  0.1087E-07  0.1085E-07  0.3393E-08  0.3389E-08
    -19.570  0.1318E+02  0.1318E+02  0.4115E+01  0.4115E+01
    -19.257  0.1882E+02  0.1882E+02  0.9994E+01  0.9994E+01
    -18.945  0.8297E-02  0.8301E-02  0.1000E+02  0.1000E+02
    -18.633  0.0000E+00  0.0000E+00  0.1000E+02  0.1000E+02
    -18.321  0.0000E+00  0.0000E+00  0.1000E+02  0.1000E+02
    -18.008  0.0000E+00  0.0000E+00  0.1000E+02  0.1000E+02
    -17.696  0.0000E+00  0.0000E+00  0.1000E+02  0.1000E+02
    -17.384  0.0000E+00  0.0000E+00  0.1000E+02  0.1000E+02
    -17.072  0.0000E+00  0.0000E+00  0.1000E+02  0.1000E+02
    -16.760  0.0000E+00  0.0000E+00  0.1000E+02  0.1000E+02
    -16.447  0.0000E+00  0.0000E+00  0.1000E+02  0.1000E+02
    -16.135  0.0000E+00  0.0000E+00  0.1000E+02  0.1000E+02
    -15.823  0.0000E+00  0.0000E+00  0.1000E+02  0.1000E+02
    -15.511  0.0000E+00  0.0000E+00  0.1000E+02  0.1000E+02
    -15.199  0.0000E+00  0.0000E+00  0.1000E+02  0.1000E+02
    -14.886  0.0000E+00  0.0000E+00  0.1000E+02  0.1000E+02
    -14.574  0.0000E+00  0.0000E+00  0.1000E+02  0.1000E+02
    -14.262  0.0000E+00  0.0000E+00  0.1000E+02  0.1000E+02
    -13.950  0.0000E+00  0.0000E+00  0.1000E+02  0.1000E+02
    -13.638  0.0000E+00  0.0000E+00  0.1000E+02  0.1000E+02
    -13.325  0.0000E+00  0.0000E+00  0.1000E+02  0.1000E+02
    -13.013  0.0000E+00  0.0000E+00  0.1000E+02  0.1000E+02
    -12.701  0.0000E+00  0.0000E+00  0.1000E+02  0.1000E+02
    -12.389  0.0000E+00  0.0000E+00  0.1000E+02  0.1000E+02
    -12.076  0.0000E+00  0.0000E+00  0.1000E+02  0.1000E+02
    -11.764  0.0000E+00  0.0000E+00  0.1000E+02  0.1000E+02
    -11.452  0.0000E+00  0.0000E+00  0.1000E+02  0.1000E+02
    -11.140  0.0000E+00  0.0000E+00  0.1000E+02  0.1000E+02
    -10.828  0.0000E+00  0.0000E+00  0.1000E+02  0.1000E+02
    -10.515  0.0000E+00  0.0000E+00  0.1000E+02  0.1000E+02
    -10.203  0.0000E+00  0.0000E+00  0.1000E+02  0.1000E+02
     -9.891  0.0000E+00  0.0000E+00  0.1000E+02  0.1000E+02
     -9.579  0.0000E+00  0.0000E+00  0.1000E+02  0.1000E+02
     -9.267  0.0000E+00  0.0000E+00  0.1000E+02  0.1000E+02
     -8.954  0.0000E+00  0.0000E+00  0.1000E+02  0.1000E+02
     -8.642  0.0000E+00  0.0000E+00  0.1000E+02  0.1000E+02
     -8.330  0.0000E+00  0.0000E+00  0.1000E+02  0.1000E+02
     -8.018  0.0000E+00  0.0000E+00  0.1000E+02  0.1000E+02
     -7.706  0.1261E+00  0.1261E+00  0.1004E+02  0.1004E+02
     -7.393  0.8385E+00  0.8385E+00  0.1030E+02  0.1030E+02
     -7.081  0.3985E+00  0.3985E+00  0.1043E+02  0.1043E+02
     -6.769  0.3102E+00  0.3102E+00  0.1052E+02  0.1052E+02
     -6.457  0.2695E+00  0.2695E+00  0.1061E+02  0.1061E+02
     -6.144  0.2478E+00  0.2478E+00  0.1068E+02  0.1068E+02
     -5.832  0.2521E+00  0.2521E+00  0.1076E+02  0.1076E+02
     -5.520  0.3393E+00  0.3393E+00  0.1087E+02  0.1087E+02
     -5.208  0.8186E-01  0.8186E-01  0.1089E+02  0.1089E+02
     -4.896  0.8048E-01  0.8048E-01  0.1092E+02  0.1092E+02
     -4.583  0.7089E-01  0.7089E-01  0.1094E+02  0.1094E+02
     -4.271  0.7422E-01  0.7422E-01  0.1096E+02  0.1096E+02
     -3.959  0.7211E-01  0.7211E-01  0.1099E+02  0.1099E+02
     -3.647  0.9982E-01  0.9982E-01  0.1102E+02  0.1102E+02
     -3.335  0.6521E-01  0.6521E-01  0.1104E+02  0.1104E+02
     -3.022  0.6361E-01  0.6361E-01  0.1106E+02  0.1106E+02
     -2.710  0.6359E-01  0.6359E-01  0.1108E+02  0.1108E+02
     -2.398  0.2609E+00  0.2609E+00  0.1116E+02  0.1116E+02
     -2.086  0.1611E+00  0.1611E+00  0.1121E+02  0.1121E+02
     -1.774  0.1358E+00  0.1358E+00  0.1125E+02  0.1125E+02
     -1.461  0.1367E+00  0.1367E+00  0.1130E+02  0.1130E+02
     -1.149  0.1322E+00  0.1322E+00  0.1134E+02  0.1134E+02
     -0.837  0.1192E+00  0.1192E+00  0.1137E+02  0.1137E+02
     -0.525  0.1071E+00  0.1071E+00  0.1141E+02  0.1141E+02
     -0.212  0.1124E+00  0.1124E+00  0.1144E+02  0.1144E+02
      0.100  0.1181E+00  0.1181E+00  0.1148E+02  0.1148E+02
      0.412  0.1093E+00  0.1093E+00  0.1151E+02  0.1151E+02
      0.724  0.1040E+00  0.1040E+00  0.1155E+02  0.1155E+02
      1.036  0.1085E+00  0.1085E+00  0.1158E+02  0.1158E+02
      1.349  0.1076E+00  0.1076E+00  0.1161E+02  0.1161E+02
      1.661  0.1411E+00  0.1411E+00  0.1166E+02  0.1166E+02
      1.973  0.9047E+00  0.9047E+00  0.1194E+02  0.1194E+02
      2.285  0.4638E+00  0.4638E+00  0.1208E+02  0.1208E+02
      2.597  0.3837E+00  0.3837E+00  0.1220E+02  0.1220E+02
      2.910  0.3559E+00  0.3559E+00  0.1232E+02  0.1232E+02
      3.222  0.2995E+00  0.2995E+00  0.1241E+02  0.1241E+02
      3.534  0.1249E+01  0.1249E+01  0.1280E+02  0.1280E+02
      3.846  0.8979E+00  0.8979E+00  0.1308E+02  0.1308E+02
      4.158  0.7635E+00  0.7635E+00  0.1332E+02  0.1332E+02
      4.471  0.7720E+00  0.7720E+00  0.1356E+02  0.1356E+02
      4.783  0.1239E+01  0.1239E+01  0.1395E+02  0.1395E+02
      5.095  0.1729E+00  0.1728E+00  0.1400E+02  0.1400E+02
      5.407  0.4418E+00  0.4418E+00  0.1414E+02  0.1414E+02
      5.720  0.1037E+01  0.1037E+01  0.1446E+02  0.1446E+02
      6.032  0.9542E+00  0.9542E+00  0.1476E+02  0.1476E+02
      6.344  0.6613E+00  0.6613E+00  0.1497E+02  0.1497E+02
      6.656  0.3186E+00  0.3186E+00  0.1507E+02  0.1507E+02
      6.968  0.2989E+00  0.2989E+00  0.1516E+02  0.1516E+02
      7.281  0.3196E+00  0.3196E+00  0.1526E+02  0.1526E+02
      7.593  0.1271E+01  0.1271E+01  0.1566E+02  0.1566E+02
      7.905  0.9829E+00  0.9829E+00  0.1596E+02  0.1596E+02
      8.217  0.6728E+00  0.6728E+00  0.1617E+02  0.1617E+02
      8.529  0.6072E+00  0.6072E+00  0.1636E+02  0.1636E+02
      8.842  0.1819E+01  0.1819E+01  0.1693E+02  0.1693E+02
      9.154  0.1890E+00  0.1890E+00  0.1699E+02  0.1699E+02
      9.466  0.1827E+00  0.1827E+00  0.1705E+02  0.1705E+02
      9.778  0.1605E+00  0.1605E+00  0.1710E+02  0.1710E+02
     10.090  0.1556E+00  0.1556E+00  0.1715E+02  0.1715E+02
     10.403  0.1746E+00  0.1746E+00  0.1720E+02  0.1720E+02
     10.715  0.1732E+00  0.1732E+00  0.1725E+02  0.1725E+02
     11.027  0.1566E+00  0.1566E+00  0.1730E+02  0.1730E+02
     11.339  0.1575E+00  0.1575E+00  0.1735E+02  0.1735E+02
     11.652  0.3054E+00  0.3054E+00  0.1745E+02  0.1745E+02
     11.964  0.6404E+00  0.6404E+00  0.1765E+02  0.1765E+02
     12.276  0.8850E+00  0.8850E+00  0.1792E+02  0.1792E+02
     12.588  0.5691E+00  0.5691E+00  0.1810E+02  0.1810E+02
     12.900  0.3855E+00  0.3855E+00  0.1822E+02  0.1822E+02
     13.213  0.8637E+00  0.8637E+00  0.1849E+02  0.1849E+02
     13.525  0.9704E+00  0.9704E+00  0.1879E+02  0.1879E+02
     13.837  0.9728E+00  0.9728E+00  0.1910E+02  0.1910E+02
     14.149  0.7631E+00  0.7631E+00  0.1934E+02  0.1934E+02
     14.461  0.9069E+00  0.9069E+00  0.1962E+02  0.1962E+02
     14.774  0.9199E+00  0.9199E+00  0.1991E+02  0.1991E+02
     15.086  0.5252E+00  0.5252E+00  0.2007E+02  0.2007E+02
     15.398  0.7738E+00  0.7738E+00  0.2031E+02  0.2031E+02
     15.710  0.6143E+00  0.6143E+00  0.2050E+02  0.2050E+02
     16.022  0.1176E+01  0.1176E+01  0.2087E+02  0.2087E+02
     16.335  0.1202E+01  0.1202E+01  0.2125E+02  0.2125E+02
     16.647  0.7748E+00  0.7748E+00  0.2149E+02  0.2149E+02
     16.959  0.6954E+00  0.6954E+00  0.2171E+02  0.2171E+02
     17.271  0.7206E+00  0.7206E+00  0.2193E+02  0.2193E+02
     17.584  0.8670E+00  0.8670E+00  0.2220E+02  0.2220E+02
     17.896  0.7110E+00  0.7110E+00  0.2242E+02  0.2242E+02
     18.208  0.7496E+00  0.7496E+00  0.2266E+02  0.2266E+02
     18.520  0.5328E+00  0.5328E+00  0.2282E+02  0.2282E+02
     18.832  0.6016E+00  0.6016E+00  0.2301E+02  0.2301E+02
     19.145  0.6643E+00  0.6643E+00  0.2322E+02  0.2322E+02
     19.457  0.6883E+00  0.6883E+00  0.2343E+02  0.2343E+02
     19.769  0.6003E+00  0.6003E+00  0.2362E+02  0.2362E+02
     20.081  0.5097E+00  0.5097E+00  0.2378E+02  0.2378E+02
     20.393  0.5276E+00  0.5276E+00  0.2395E+02  0.2395E+02
     20.706  0.5185E+00  0.5185E+00  0.2411E+02  0.2411E+02
     21.018  0.4975E+00  0.4975E+00  0.2426E+02  0.2426E+02
     21.330  0.4914E+00  0.4914E+00  0.2442E+02  0.2442E+02
     21.642  0.4353E+00  0.4353E+00  0.2455E+02  0.2455E+02
     21.954  0.3018E+00  0.3018E+00  0.2465E+02  0.2465E+02
     22.267  0.6982E+00  0.6982E+00  0.2487E+02  0.2487E+02
     22.579  0.6154E+00  0.6155E+00  0.2506E+02  0.2506E+02
     22.891  0.5346E+00  0.5347E+00  0.2522E+02  0.2522E+02
     23.203  0.7138E+00  0.7140E+00  0.2545E+02  0.2545E+02
     23.516  0.6502E+00  0.6501E+00  0.2565E+02  0.2565E+02
     23.828  0.5617E+00  0.5617E+00  0.2583E+02  0.2583E+02
     24.140  0.6642E+00  0.6644E+00  0.2603E+02  0.2603E+02
     24.452  0.5844E+00  0.5850E+00  0.2622E+02  0.2622E+02
     24.764  0.4654E+00  0.4651E+00  0.2636E+02  0.2636E+02
     25.077  0.4710E+00  0.4710E+00  0.2651E+02  0.2651E+02
     25.389  0.4911E+00  0.4931E+00  0.2666E+02  0.2666E+02
     25.701  0.5493E+00  0.5486E+00  0.2683E+02  0.2683E+02
     26.013  0.4948E+00  0.4984E+00  0.2699E+02  0.2699E+02
     26.325  0.5106E+00  0.5021E+00  0.2715E+02  0.2715E+02
     26.638  0.5017E+00  0.5010E+00  0.2730E+02  0.2730E+02
     26.950  0.5299E+00  0.5330E+00  0.2747E+02  0.2747E+02
     27.262  0.4402E+00  0.4140E+00  0.2761E+02  0.2760E+02
     27.574  0.4818E+00  0.5173E+00  0.2776E+02  0.2776E+02
     27.886  0.5187E+00  0.5267E+00  0.2792E+02  0.2792E+02
     28.199  0.4189E+00  0.3928E+00  0.2805E+02  0.2805E+02
     28.511  0.4159E+00  0.4179E+00  0.2818E+02  0.2818E+02
     28.823  0.4429E+00  0.4500E+00  0.2832E+02  0.2832E+02
     29.135  0.5560E+00  0.5529E+00  0.2849E+02  0.2849E+02
     29.448  0.4871E+00  0.4703E+00  0.2864E+02  0.2864E+02
     29.760  0.5515E+00  0.5636E+00  0.2882E+02  0.2881E+02
     30.072  0.4740E+00  0.4764E+00  0.2896E+02  0.2896E+02
     30.384  0.7378E+00  0.7229E+00  0.2919E+02  0.2919E+02
     30.696  0.3863E+00  0.3627E+00  0.2932E+02  0.2930E+02
     31.009  0.1002E+01  0.1077E+01  0.2963E+02  0.2964E+02
     31.321  0.1524E+01  0.1627E+01  0.3010E+02  0.3015E+02
     31.633  0.1649E+01  0.1473E+01  0.3062E+02  0.3061E+02
     31.945  0.1274E+01  0.1231E+01  0.3102E+02  0.3099E+02
     32.257  0.1697E+01  0.1631E+01  0.3155E+02  0.3150E+02
     32.570  0.1945E+01  0.2001E+01  0.3215E+02  0.3212E+02
     32.882  0.1893E+01  0.1759E+01  0.3274E+02  0.3267E+02
     33.194  0.1261E+01  0.1456E+01  0.3314E+02  0.3313E+02
     33.506  0.1180E+01  0.1084E+01  0.3351E+02  0.3347E+02
     33.818  0.1188E+01  0.1144E+01  0.3388E+02  0.3382E+02
     34.131  0.1352E+01  0.1378E+01  0.3430E+02  0.3425E+02
     34.443  0.9557E+00  0.9203E+00  0.3460E+02  0.3454E+02
     34.755  0.4623E+00  0.6027E+00  0.3474E+02  0.3473E+02
     35.067  0.5682E+00  0.5371E+00  0.3492E+02  0.3490E+02
     35.380  0.5543E+00  0.6209E+00  0.3509E+02  0.3509E+02
     35.692  0.5307E+00  0.6052E+00  0.3526E+02  0.3528E+02
     36.004  0.5099E+00  0.3824E+00  0.3542E+02  0.3540E+02
     36.316  0.3677E+00  0.3724E+00  0.3553E+02  0.3552E+02
     36.628  0.5631E+00  0.5383E+00  0.3571E+02  0.3568E+02
     36.941  0.5769E+00  0.6202E+00  0.3589E+02  0.3588E+02
     37.253  0.3230E+00  0.4500E+00  0.3599E+02  0.3602E+02
     37.565  0.3559E+00  0.5854E+00  0.3610E+02  0.3620E+02
     37.877  0.8530E+00  0.7452E+00  0.3637E+02  0.3643E+02
     38.189  0.1143E+01  0.8713E+00  0.3672E+02  0.3671E+02
     38.502  0.9705E+00  0.8737E+00  0.3703E+02  0.3698E+02
     38.814  0.8555E+00  0.9206E+00  0.3729E+02  0.3727E+02
     39.126  0.1251E+01  0.1187E+01  0.3769E+02  0.3764E+02
     39.438  0.5519E+00  0.6984E+00  0.3786E+02  0.3786E+02
     39.750  0.6754E+00  0.6236E+00  0.3807E+02  0.3805E+02
     40.063  0.7364E+00  0.6369E+00  0.3830E+02  0.3825E+02
     40.375  0.6894E+00  0.8403E+00  0.3851E+02  0.3851E+02
     40.687  0.9854E+00  0.1201E+01  0.3882E+02  0.3889E+02
     40.999  0.9550E+00  0.7257E+00  0.3912E+02  0.3911E+02
     41.312  0.5884E+00  0.6351E+00  0.3930E+02  0.3931E+02
     41.624  0.9891E+00  0.6403E+00  0.3961E+02  0.3951E+02
     41.936  0.7499E+00  0.7760E+00  0.3985E+02  0.3975E+02
     42.248  0.8699E+00  0.8573E+00  0.4012E+02  0.4002E+02
     42.560  0.1056E+01  0.1275E+01  0.4045E+02  0.4042E+02
     42.873  0.9206E+00  0.8063E+00  0.4074E+02  0.4067E+02
     43.185  0.1183E+01  0.7030E+00  0.4111E+02  0.4089E+02
     43.497  0.8742E+00  0.1031E+01  0.4138E+02  0.4121E+02
     43.809  0.9209E+00  0.1227E+01  0.4167E+02  0.4160E+02
     44.121  0.9168E+00  0.8992E+00  0.4195E+02  0.4188E+02
     44.434  0.1389E+01  0.1088E+01  0.4239E+02  0.4222E+02
     44.746  0.1438E+01  0.1306E+01  0.4284E+02  0.4262E+02
     45.058  0.8965E+00  0.1087E+01  0.4312E+02  0.4296E+02
     45.370  0.1306E+01  0.1293E+01  0.4352E+02  0.4337E+02
     45.682  0.1254E+01  0.1483E+01  0.4391E+02  0.4383E+02
     45.995  0.1068E+01  0.1340E+01  0.4425E+02  0.4425E+02
     46.307  0.1350E+01  0.1174E+01  0.4467E+02  0.4462E+02
     46.619  0.1038E+01  0.8605E+00  0.4499E+02  0.4488E+02
     46.931  0.1094E+01  0.8994E+00  0.4534E+02  0.4517E+02
     47.244  0.1283E+01  0.1048E+01  0.4574E+02  0.4549E+02
     47.556  0.8382E+00  0.8866E+00  0.4600E+02  0.4577E+02
     47.868  0.9385E+00  0.7799E+00  0.4629E+02  0.4601E+02
     48.180  0.6935E+00  0.1176E+01  0.4651E+02  0.4638E+02
     48.492  0.7995E+00  0.9359E+00  0.4676E+02  0.4667E+02
     48.805  0.8073E+00  0.9506E+00  0.4701E+02  0.4697E+02
     49.117  0.1135E+01  0.9660E+00  0.4736E+02  0.4727E+02
     49.429  0.9708E+00  0.8404E+00  0.4767E+02  0.4753E+02
     49.741  0.8732E+00  0.9396E+00  0.4794E+02  0.4783E+02
     50.053  0.9258E+00  0.4387E+00  0.4823E+02  0.4796E+02
     50.366  0.1203E+01  0.7157E+00  0.4860E+02  0.4819E+02
     50.678  0.7296E+00  0.9151E+00  0.4883E+02  0.4847E+02
     50.990  0.1039E+01  0.1112E+01  0.4916E+02  0.4882E+02
     51.302  0.7117E+00  0.6277E+00  0.4938E+02  0.4902E+02
     51.614  0.5943E+00  0.1002E+01  0.4956E+02  0.4933E+02
     51.927  0.4506E+00  0.8694E+00  0.4970E+02  0.4960E+02
     52.239  0.6966E+00  0.7320E+00  0.4992E+02  0.4983E+02
     52.551  0.1075E+01  0.5187E+00  0.5026E+02  0.4999E+02
     52.863  0.7204E+00  0.7577E+00  0.5048E+02  0.5023E+02
     53.176  0.7733E+00  0.8112E+00  0.5072E+02  0.5048E+02
     53.488  0.5598E+00  0.1217E+01  0.5090E+02  0.5086E+02
     53.800  0.3913E+00  0.8030E+00  0.5102E+02  0.5111E+02
     54.112  0.4973E+00  0.3153E+00  0.5118E+02  0.5121E+02
     54.424  0.6852E+00  0.5714E+00  0.5139E+02  0.5139E+02
     54.737  0.8407E+00  0.4807E+00  0.5165E+02  0.5154E+02
     55.049  0.4299E+00  0.3688E+00  0.5179E+02  0.5165E+02
     55.361  0.3558E+00  0.4520E+00  0.5190E+02  0.5180E+02
     55.673  0.3166E+00  0.4460E+00  0.5200E+02  0.5193E+02
     55.985  0.3033E+00  0.6257E+00  0.5209E+02  0.5213E+02
     56.298  0.3447E+00  0.3425E+00  0.5220E+02  0.5224E+02
     56.610  0.3939E+00  0.3248E+00  0.5232E+02  0.5234E+02
     56.922  0.4706E+00  0.3686E+00  0.5247E+02  0.5245E+02
     57.234  0.3937E+00  0.4211E+00  0.5259E+02  0.5259E+02
     57.547  0.5012E+00  0.4106E+00  0.5275E+02  0.5271E+02
     57.859  0.4653E+00  0.4672E+00  0.5289E+02  0.5286E+02
     58.171  0.5309E+00  0.4565E+00  0.5306E+02  0.5300E+02
     58.483  0.5133E+00  0.3115E+00  0.5322E+02  0.5310E+02
     58.795  0.3288E+00  0.3427E+00  0.5332E+02  0.5321E+02
     59.108  0.1897E+00  0.3060E+00  0.5338E+02  0.5330E+02
     59.420  0.2297E+00  0.3317E+00  0.5345E+02  0.5341E+02
     59.732  0.2109E+00  0.3767E+00  0.5352E+02  0.5352E+02
     60.044  0.9391E-01  0.1600E+00  0.5355E+02  0.5357E+02
     60.356  0.1566E+00  0.3071E+00  0.5360E+02  0.5367E+02
     60.669  0.1199E+00  0.5449E+00  0.5364E+02  0.5384E+02
     60.981  0.1388E+00  0.1788E+00  0.5368E+02  0.5389E+02
     61.293  0.9883E-01  0.8866E-01  0.5371E+02  0.5392E+02
     61.605  0.6995E-01  0.7017E-01  0.5373E+02  0.5394E+02
     61.917  0.2393E+00  0.1102E+00  0.5381E+02  0.5398E+02
     62.230  0.1033E+00  0.3604E-01  0.5384E+02  0.5399E+02
     62.542  0.9824E-01  0.0000E+00  0.5387E+02  0.5399E+02
     62.854  0.1008E+00  0.0000E+00  0.5390E+02  0.5399E+02
     63.166  0.1231E+00  0.0000E+00  0.5394E+02  0.5399E+02
     63.479  0.6332E-01  0.2071E-04  0.5396E+02  0.5399E+02
     63.791  0.9875E-01  0.3201E-01  0.5399E+02  0.5400E+02
     64.103  0.0000E+00  0.0000E+00  0.5399E+02  0.5400E+02
     64.415  0.0000E+00  0.0000E+00  0.5399E+02  0.5400E+02
     64.727  0.0000E+00  0.0000E+00  0.5399E+02  0.5400E+02
     65.040  0.0000E+00  0.0000E+00  0.5399E+02  0.5400E+02
     65.352  0.2117E-04  0.0000E+00  0.5399E+02  0.5400E+02
     65.664  0.3201E-01  0.0000E+00  0.5400E+02  0.5400E+02
     65.976  0.0000E+00  0.0000E+00  0.5400E+02  0.5400E+02
     66.288  0.0000E+00  0.0000E+00  0.5400E+02  0.5400E+02
     66.601  0.0000E+00  0.0000E+00  0.5400E+02  0.5400E+02
     66.913  0.0000E+00  0.0000E+00  0.5400E+02  0.5400E+02
     67.225  0.0000E+00  0.0000E+00  0.5400E+02  0.5400E+02
     67.537  0.0000E+00  0.0000E+00  0.5400E+02  0.5400E+02
     67.849  0.0000E+00  0.0000E+00  0.5400E+02  0.5400E+02
     68.162  0.0000E+00  0.0000E+00  0.5400E+02  0.5400E+02
     68.474  0.0000E+00  0.0000E+00  0.5400E+02  0.5400E+02
     68.786  0.0000E+00  0.0000E+00  0.5400E+02  0.5400E+02
     69.098  0.0000E+00  0.0000E+00  0.5400E+02  0.5400E+02
     69.411  0.0000E+00  0.0000E+00  0.5400E+02  0.5400E+02
     69.723  0.0000E+00  0.0000E+00  0.5400E+02  0.5400E+02
     69.72271964    -23.94049270  301      5.05607678      1.00000000
    -23.940  0.0000E+00  0.0000E+00  0.0000E+00  0.0000E+00  0.0000E+00  0.0000E+00  0.0000E+00  0.0000E+00  0.0000E+00  0.0000E+00  0.0000E+00  0.0000E+00  0.0000E+00  0.0000E+00  0.0000E+00  0.0000E+00  0.0000E+00  0.0000E+00
    -23.628  0.0000E+00  0.0000E+00  0.0000E+00  0.0000E+00  0.0000E+00  0.0000E+00  0.0000E+00  0.0000E+00  0.0000E+00  0.0000E+00  0.0000E+00  0.0000E+00  0.0000E+00  0.0000E+00  0.0000E+00  0.0000E+00  0.0000E+00  0.0000E+00
    -23.316  0.0000E+00  0.0000E+00  0.0000E+00  0.0000E+00  0.0000E+00  0.0000E+00  0.0000E+00  0.0000E+00  0.0000E+00  0.0000E+00  0.0000E+00  0.0000E+00  0.0000E+00  0.0000E+00  0.0000E+00  0.0000E+00  0.0000E+00  0.0000E+00
    -23.004  0.0000E+00  0.0000E+00  0.0000E+00  0.0000E+00  0.0000E+00  0.0000E+00  0.0000E+00  0.0000E+00  0.0000E+00  0.0000E+00  0.0000E+00  0.0000E+00  0.0000E+00  0.0000E+00  0.0000E+00  0.0000E+00  0.0000E+00  0.0000E+00
    -22.692  0.0000E+00  0.0000E+00  0.0000E+00  0.0000E+00  0.0000E+00  0.0000E+00  0.0000E+00  0.0000E+00  0.0000E+00  0.0000E+00  0.0000E+00  0.0000E+00  0.0000E+00  0.0000E+00  0.0000E+00  0.0000E+00  0.0000E+00  0.0000E+00
    -22.379  0.0000E+00  0.0000E+00  0.0000E+00  0.0000E+00  0.0000E+00  0.0000E+00  0.0000E+00  0.0000E+00  0.0000E+00  0.0000E+00  0.0000E+00  0.0000E+00  0.0000E+00  0.0000E+00  0.0000E+00  0.0000E+00  0.0000E+00  0.0000E+00
    -22.067  0.0000E+00  0.0000E+00  0.0000E+00  0.0000E+00  0.0000E+00  0.0000E+00  0.0000E+00  0.0000E+00  0.0000E+00  0.0000E+00  0.0000E+00  0.0000E+00  0.0000E+00  0.0000E+00  0.0000E+00  0.0000E+00  0.0000E+00  0.0000E+00
    -21.755  0.0000E+00  0.0000E+00  0.0000E+00  0.0000E+00  0.0000E+00  0.0000E+00  0.0000E+00  0.0000E+00  0.0000E+00  0.0000E+00  0.0000E+00  0.0000E+00  0.0000E+00  0.0000E+00  0.0000E+00  0.0000E+00  0.0000E+00  0.0000E+00
    -21.443  0.0000E+00  0.0000E+00  0.0000E+00  0.0000E+00  0.0000E+00  0.0000E+00  0.0000E+00  0.0000E+00  0.0000E+00  0.0000E+00  0.0000E+00  0.0000E+00  0.0000E+00  0.0000E+00  0.0000E+00  0.0000E+00  0.0000E+00  0.0000E+00
    -21.131  0.0000E+00  0.0000E+00  0.0000E+00  0.0000E+00  0.0000E+00  0.0000E+00  0.0000E+00  0.0000E+00  0.0000E+00  0.0000E+00  0.0000E+00  0.0000E+00  0.0000E+00  0.0000E+00  0.0000E+00  0.0000E+00  0.0000E+00  0.0000E+00
    -20.818  0.0000E+00  0.0000E+00  0.0000E+00  0.0000E+00  0.0000E+00  0.0000E+00  0.0000E+00  0.0000E+00  0.0000E+00  0.0000E+00  0.0000E+00  0.0000E+00  0.0000E+00  0.0000E+00  0.0000E+00  0.0000E+00  0.0000E+00  0.0000E+00
    -20.506  0.0000E+00  0.0000E+00  0.0000E+00  0.0000E+00  0.0000E+00  0.0000E+00  0.0000E+00  0.0000E+00  0.0000E+00  0.0000E+00  0.0000E+00  0.0000E+00  0.0000E+00  0.0000E+00  0.0000E+00  0.0000E+00  0.0000E+00  0.0000E+00
    -20.194  0.0000E+00  0.0000E+00  0.0000E+00  0.0000E+00  0.0000E+00  0.0000E+00  0.0000E+00  0.0000E+00  0.0000E+00  0.0000E+00  0.0000E+00  0.0000E+00  0.0000E+00  0.0000E+00  0.0000E+00  0.0000E+00  0.0000E+00  0.0000E+00
    -19.882  0.1038E-13  0.1037E-13  0.3869E-12  0.3865E-12  0.1779E-11  0.1777E-11  0.1779E-11  0.1777E-11  0.2436E-08  0.2433E-08  0.2436E-08  0.2433E-08  0.4160E-10  0.4156E-10  0.4355E-09  0.4350E-09  0.4623E-10  0.4618E-10
    -19.570  0.8457E-03  0.8457E-03  0.1159E-02  0.1159E-02  0.1486E-02  0.1486E-02  0.1486E-02  0.1486E-02  0.1568E+01  0.1568E+01  0.1568E+01  0.1568E+01  0.9632E+00  0.9631E+00  0.1435E+01  0.1435E+01  0.1008E+01  0.1008E+01
    -19.257  0.1416E-02  0.1416E-02  0.1084E-02  0.1084E-02  0.9926E-03  0.9930E-03  0.9928E-03  0.9928E-03  0.1611E+01  0.1611E+01  0.1611E+01  0.1611E+01  0.2223E+01  0.2223E+01  0.1745E+01  0.1745E+01  0.2177E+01  0.2178E+01
    -18.945  0.5970E-12  0.5417E-12  0.1701E-12  0.3553E-12  0.7149E-06  0.7155E-06  0.7152E-06  0.7156E-06  0.2069E-02  0.2070E-02  0.2069E-02  0.2070E-02  0.5947E-12  0.8482E-12  0.3547E-12  0.1145E-11  0.8424E-12  0.7754E-12
    -18.633  0.0000E+00  0.0000E+00  0.0000E+00  0.0000E+00  0.0000E+00  0.0000E+00  0.0000E+00  0.0000E+00  0.0000E+00  0.0000E+00  0.0000E+00  0.0000E+00  0.0000E+00  0.0000E+00  0.0000E+00  0.0000E+00  0.0000E+00  0.0000E+00
    -18.321  0.0000E+00  0.0000E+00  0.0000E+00  0.0000E+00  0.0000E+00  0.0000E+00  0.0000E+00  0.0000E+00  0.0000E+00  0.0000E+00  0.0000E+00  0.0000E+00  0.0000E+00  0.0000E+00  0.0000E+00  0.0000E+00  0.0000E+00  0.0000E+00
    -18.008  0.0000E+00  0.0000E+00  0.0000E+00  0.0000E+00  0.0000E+00  0.0000E+00  0.0000E+00  0.0000E+00  0.0000E+00  0.0000E+00  0.0000E+00  0.0000E+00  0.0000E+00  0.0000E+00  0.0000E+00  0.0000E+00  0.0000E+00  0.0000E+00
    -17.696  0.0000E+00  0.0000E+00  0.0000E+00  0.0000E+00  0.0000E+00  0.0000E+00  0.0000E+00  0.0000E+00  0.0000E+00  0.0000E+00  0.0000E+00  0.0000E+00  0.0000E+00  0.0000E+00  0.0000E+00  0.0000E+00  0.0000E+00  0.0000E+00
    -17.384  0.0000E+00  0.0000E+00  0.0000E+00  0.0000E+00  0.0000E+00  0.0000E+00  0.0000E+00  0.0000E+00  0.0000E+00  0.0000E+00  0.0000E+00  0.0000E+00  0.0000E+00  0.0000E+00  0.0000E+00  0.0000E+00  0.0000E+00  0.0000E+00
    -17.072  0.0000E+00  0.0000E+00  0.0000E+00  0.0000E+00  0.0000E+00  0.0000E+00  0.0000E+00  0.0000E+00  0.0000E+00  0.0000E+00  0.0000E+00  0.0000E+00  0.0000E+00  0.0000E+00  0.0000E+00  0.0000E+00  0.0000E+00  0.0000E+00
    -16.760  0.0000E+00  0.0000E+00  0.0000E+00  0.0000E+00  0.0000E+00  0.0000E+00  0.0000E+00  0.0000E+00  0.0000E+00  0.0000E+00  0.0000E+00  0.0000E+00  0.0000E+00  0.0000E+00  0.0000E+00  0.0000E+00  0.0000E+00  0.0000E+00
    -16.447  0.0000E+00  0.0000E+00  0.0000E+00  0.0000E+00  0.0000E+00  0.0000E+00  0.0000E+00  0.0000E+00  0.0000E+00  0.0000E+00  0.0000E+00  0.0000E+00  0.0000E+00  0.0000E+00  0.0000E+00  0.0000E+00  0.0000E+00  0.0000E+00
    -16.135  0.0000E+00  0.0000E+00  0.0000E+00  0.0000E+00  0.0000E+00  0.0000E+00  0.0000E+00  0.0000E+00  0.0000E+00  0.0000E+00  0.0000E+00  0.0000E+00  0.0000E+00  0.0000E+00  0.0000E+00  0.0000E+00  0.0000E+00  0.0000E+00
    -15.823  0.0000E+00  0.0000E+00  0.0000E+00  0.0000E+00  0.0000E+00  0.0000E+00  0.0000E+00  0.0000E+00  0.0000E+00  0.0000E+00  0.0000E+00  0.0000E+00  0.0000E+00  0.0000E+00  0.0000E+00  0.0000E+00  0.0000E+00  0.0000E+00
    -15.511  0.0000E+00  0.0000E+00  0.0000E+00  0.0000E+00  0.0000E+00  0.0000E+00  0.0000E+00  0.0000E+00  0.0000E+00  0.0000E+00  0.0000E+00  0.0000E+00  0.0000E+00  0.0000E+00  0.0000E+00  0.0000E+00  0.0000E+00  0.0000E+00
    -15.199  0.0000E+00  0.0000E+00  0.0000E+00  0.0000E+00  0.0000E+00  0.0000E+00  0.0000E+00  0.0000E+00  0.0000E+00  0.0000E+00  0.0000E+00  0.0000E+00  0.0000E+00  0.0000E+00  0.0000E+00  0.0000E+00  0.0000E+00  0.0000E+00
    -14.886  0.0000E+00  0.0000E+00  0.0000E+00  0.0000E+00  0.0000E+00  0.0000E+00  0.0000E+00  0.0000E+00  0.0000E+00  0.0000E+00  0.0000E+00  0.0000E+00  0.0000E+00  0.0000E+00  0.0000E+00  0.0000E+00  0.0000E+00  0.0000E+00
    -14.574  0.0000E+00  0.0000E+00  0.0000E+00  0.0000E+00  0.0000E+00  0.0000E+00  0.0000E+00  0.0000E+00  0.0000E+00  0.0000E+00  0.0000E+00  0.0000E+00  0.0000E+00  0.0000E+00  0.0000E+00  0.0000E+00  0.0000E+00  0.0000E+00
    -14.262  0.0000E+00  0.0000E+00  0.0000E+00  0.0000E+00  0.0000E+00  0.0000E+00  0.0000E+00  0.0000E+00  0.0000E+00  0.0000E+00  0.0000E+00  0.0000E+00  0.0000E+00  0.0000E+00  0.0000E+00  0.0000E+00  0.0000E+00  0.0000E+00
    -13.950  0.0000E+00  0.0000E+00  0.0000E+00  0.0000E+00  0.0000E+00  0.0000E+00  0.0000E+00  0.0000E+00  0.0000E+00  0.0000E+00  0.0000E+00  0.0000E+00  0.0000E+00  0.0000E+00  0.0000E+00  0.0000E+00  0.0000E+00  0.0000E+00
    -13.638  0.0000E+00  0.0000E+00  0.0000E+00  0.0000E+00  0.0000E+00  0.0000E+00  0.0000E+00  0.0000E+00  0.0000E+00  0.0000E+00  0.0000E+00  0.0000E+00  0.0000E+00  0.0000E+00  0.0000E+00  0.0000E+00  0.0000E+00  0.0000E+00
    -13.325  0.0000E+00  0.0000E+00  0.0000E+00  0.0000E+00  0.0000E+00  0.0000E+00  0.0000E+00  0.0000E+00  0.0000E+00  0.0000E+00  0.0000E+00  0.0000E+00  0.0000E+00  0.0000E+00  0.0000E+00  0.0000E+00  0.0000E+00  0.0000E+00
    -13.013  0.0000E+00  0.0000E+00  0.0000E+00  0.0000E+00  0.0000E+00  0.0000E+00  0.0000E+00  0.0000E+00  0.0000E+00  0.0000E+00  0.0000E+00  0.0000E+00  0.0000E+00  0.0000E+00  0.0000E+00  0.0000E+00  0.0000E+00  0.0000E+00
    -12.701  0.0000E+00  0.0000E+00  0.0000E+00  0.0000E+00  0.0000E+00  0.0000E+00  0.0000E+00  0.0000E+00  0.0000E+00  0.0000E+00  0.0000E+00  0.0000E+00  0.0000E+00  0.0000E+00  0.0000E+00  0.0000E+00  0.0000E+00  0.0000E+00
    -12.389  0.0000E+00  0.0000E+00  0.0000E+00  0.0000E+00  0.0000E+00  0.0000E+00  0.0000E+00  0.0000E+00  0.0000E+00  0.0000E+00  0.0000E+00  0.0000E+00  0.0000E+00  0.0000E+00  0.0000E+00  0.0000E+00  0.0000E+00  0.0000E+00
    -12.076  0.0000E+00  0.0000E+00  0.0000E+00  0.0000E+00  0.0000E+00  0.0000E+00  0.0000E+00  0.0000E+00  0.0000E+00  0.0000E+00  0.0000E+00  0.0000E+00  0.0000E+00  0.0000E+00  0.0000E+00  0.0000E+00  0.0000E+00  0.0000E+00
    -11.764  0.0000E+00  0.0000E+00  0.0000E+00  0.0000E+00  0.0000E+00  0.0000E+00  0.0000E+00  0.0000E+00  0.0000E+00  0.0000E+00  0.0000E+00  0.0000E+00  0.0000E+00  0.0000E+00  0.0000E+00  0.0000E+00  0.0000E+00  0.0000E+00
    -11.452  0.0000E+00  0.0000E+00  0.0000E+00  0.0000E+00  0.0000E+00  0.0000E+00  0.0000E+00  0.0000E+00  0.0000E+00  0.0000E+00  0.0000E+00  0.0000E+00  0.0000E+00  0.0000E+00  0.0000E+00  0.0000E+00  0.0000E+00  0.0000E+00
    -11.140  0.0000E+00  0.0000E+00  0.0000E+00  0.0000E+00  0.0000E+00  0.0000E+00  0.0000E+00  0.0000E+00  0.0000E+00  0.0000E+00  0.0000E+00  0.0000E+00  0.0000E+00  0.0000E+00  0.0000E+00  0.0000E+00  0.0000E+00  0.0000E+00
    -10.828  0.0000E+00  0.0000E+00  0.0000E+00  0.0000E+00  0.0000E+00  0.0000E+00  0.0000E+00  0.0000E+00  0.0000E+00  0.0000E+00  0.0000E+00  0.0000E+00  0.0000E+00  0.0000E+00  0.0000E+00  0.0000E+00  0.0000E+00  0.0000E+00
    -10.515  0.0000E+00  0.0000E+00  0.0000E+00  0.0000E+00  0.0000E+00  0.0000E+00  0.0000E+00  0.0000E+00  0.0000E+00  0.0000E+00  0.0000E+00  0.0000E+00  0.0000E+00  0.0000E+00  0.0000E+00  0.0000E+00  0.0000E+00  0.0000E+00
    -10.203  0.0000E+00  0.0000E+00  0.0000E+00  0.0000E+00  0.0000E+00  0.0000E+00  0.0000E+00  0.0000E+00  0.0000E+00  0.0000E+00  0.0000E+00  0.0000E+00  0.0000E+00  0.0000E+00  0.0000E+00  0.0000E+00  0.0000E+00  0.0000E+00
     -9.891  0.0000E+00  0.0000E+00  0.0000E+00  0.0000E+00  0.0000E+00  0.0000E+00  0.0000E+00  0.0000E+00  0.0000E+00  0.0000E+00  0.0000E+00  0.0000E+00  0.0000E+00  0.0000E+00  0.0000E+00  0.0000E+00  0.0000E+00  0.0000E+00
     -9.579  0.0000E+00  0.0000E+00  0.0000E+00  0.0000E+00  0.0000E+00  0.0000E+00  0.0000E+00  0.0000E+00  0.0000E+00  0.0000E+00  0.0000E+00  0.0000E+00  0.0000E+00  0.0000E+00  0.0000E+00  0.0000E+00  0.0000E+00  0.0000E+00
     -9.267  0.0000E+00  0.0000E+00  0.0000E+00  0.0000E+00  0.0000E+00  0.0000E+00  0.0000E+00  0.0000E+00  0.0000E+00  0.0000E+00  0.0000E+00  0.0000E+00  0.0000E+00  0.0000E+00  0.0000E+00  0.0000E+00  0.0000E+00  0.0000E+00
     -8.954  0.0000E+00  0.0000E+00  0.0000E+00  0.0000E+00  0.0000E+00  0.0000E+00  0.0000E+00  0.0000E+00  0.0000E+00  0.0000E+00  0.0000E+00  0.0000E+00  0.0000E+00  0.0000E+00  0.0000E+00  0.0000E+00  0.0000E+00  0.0000E+00
     -8.642  0.0000E+00  0.0000E+00  0.0000E+00  0.0000E+00  0.0000E+00  0.0000E+00  0.0000E+00  0.0000E+00  0.0000E+00  0.0000E+00  0.0000E+00  0.0000E+00  0.0000E+00  0.0000E+00  0.0000E+00  0.0000E+00  0.0000E+00  0.0000E+00
     -8.330  0.0000E+00  0.0000E+00  0.0000E+00  0.0000E+00  0.0000E+00  0.0000E+00  0.0000E+00  0.0000E+00  0.0000E+00  0.0000E+00  0.0000E+00  0.0000E+00  0.0000E+00  0.0000E+00  0.0000E+00  0.0000E+00  0.0000E+00  0.0000E+00