    2    2    1    2
  0.2234237E+02  0.3983132E-09  0.3983132E-09  0.3983132E-09  0.5000000E-15
  1.000000000000000E-004
  CAR 
 unknown system                          
     28    100     54
 
  0.5000000E+00  0.5000000E+00  0.5000000E+00  0.1000000E-01
    1      -19.673571    -19.673564   1.000000   1.000000
    2      -19.673571    -19.673564   1.000000   1.000000
    3      -19.629802    -19.629796   1.000000   1.000000
    4      -19.568178    -19.568172   1.000000   1.000000
    5      -19.568178    -19.568172   1.000000   1.000000
    6      -19.428542    -19.428536   1.000000   1.000000
    7      -19.428542    -19.428536   1.000000   1.000000
    8      -19.414688    -19.414681   1.000000   1.000000
    9      -19.351690    -19.351683   1.000000   1.000000
   10      -19.351690    -19.351683   1.000000   1.000000
   11       -5.600052     -5.600056   1.000000   1.000000
   12       -2.645047     -2.645051   1.000000   1.000000
   13        3.355032      3.355025   1.000000   1.000000
   14        3.355032      3.355025   1.000000   1.000000
   15        5.322756      5.322756   0.000000   0.000000
   16        8.716385      8.716382   0.000000   0.000000
   17        8.716385      8.716382   0.000000   0.000000
   18       12.219746     12.219744   0.000000   0.000000
   19       15.612034     15.612030   0.000000   0.000000
   20       16.110671     16.110673   0.000000   0.000000
   21       16.304262     16.304261   0.000000   0.000000
   22       16.304262     16.304261   0.000000   0.000000
   23       17.697761     17.697754   0.000000   0.000000
   24       17.697761     17.697754   0.000000   0.000000
   25       23.961957     23.961929   0.000000   0.000000
   26       26.285245     26.285159   0.000000   0.000000
   27       26.844763     26.844728   0.000000   0.000000
   28       26.844924     26.844995   0.000000   0.000000
   29       27.638885     27.638836   0.000000   0.000000
   30       27.639029     27.638971   0.000000   0.000000
   31       30.727787     30.735663   0.000000   0.000000
   32       31.268588     31.270416   0.000000   0.000000
   33       32.607277     32.607309   0.000000   0.000000
   34       32.608432     32.607764   0.000000   0.000000
   35       32.779678     32.779566   0.000000   0.000000
   36       34.048262     34.048279   0.000000   0.000000
   37       34.048614     34.048569   0.000000   0.000000
   38       37.663987     37.665721   0.000000   0.000000
   39       37.728892     37.668932   0.000000   0.000000
   40       37.805493     37.811607   0.000000   0.000000
   41       37.827367     37.813052   0.000000   0.000000
   42       38.490001     38.486607   0.000000   0.000000
   43       38.590222     38.594323   0.000000   0.000000
   44       40.069540     40.157685   0.000000   0.000000
   45       43.985908     44.336391   0.000000   0.000000
   46       46.265389     46.213217   0.000000   0.000000
   47       46.539459     46.637292   0.000000   0.000000
   48       49.015152     48.940279   0.000000   0.000000
   49       51.118391     50.177325   0.000000   0.000000
   50       52.404979     51.360317   0.000000   0.000000
   51       52.503384     52.742681   0.000000   0.000000
   52       52.756933     52.759974   0.000000   0.000000
   53       56.737761     56.912178   0.000000   0.000000
   54       60.671938     60.149188   0.000000   0.000000
 
  0.4897959E+00  0.4897959E+00  0.4897959E+00  0.1000000E-01
    1      -19.673549    -19.673543   1.000000   1.000000
    2      -19.673549    -19.673543   1.000000   1.000000
    3      -19.629799    -19.629793   1.000000   1.000000
    4      -19.568118    -19.568112   1.000000   1.000000
    5      -19.568118    -19.568112   1.000000   1.000000
    6      -19.428519    -19.428513   1.000000   1.000000
    7      -19.428519    -19.428513   1.000000   1.000000
    8      -19.414662    -19.414656   1.000000   1.000000
    9      -19.351615    -19.351609   1.000000   1.000000
   10      -19.351615    -19.351609   1.000000   1.000000
   11       -5.604983     -5.604987   1.000000   1.000000
   12       -2.637506     -2.637510   1.000000   1.000000
   13        3.355960      3.355953   1.000000   1.000000
   14        3.355960      3.355953   1.000000   1.000000
   15        5.323570      5.323570   0.000000   0.000000
   16        8.716659      8.716656   0.000000   0.000000
   17        8.716659      8.716656   0.000000   0.000000
   18       12.220822     12.220820   0.000000   0.000000
   19       15.536626     15.536623   0.000000   0.000000
   20       16.184151     16.184153   0.000000   0.000000
   21       16.273675     16.273673   0.000000   0.000000
   22       16.273675     16.273673   0.000000   0.000000
   23       17.732585     17.732579   0.000000   0.000000
   24       17.732585     17.732579   0.000000   0.000000
   25       23.920406     23.920410   0.000000   0.000000
   26       26.331551     26.331709   0.000000   0.000000
   27       26.733507     26.733506   0.000000   0.000000
   28       26.733560     26.733609   0.000000   0.000000
   29       27.753001     27.752997   0.000000   0.000000
   30       27.753323     27.754182   0.000000   0.000000
   31       30.544756     30.547822   0.000000   0.000000
   32       31.446223     31.451490   0.000000   0.000000
   33       32.607581     32.607374   0.000000   0.000000
   34       32.611802     32.614439   0.000000   0.000000
   35       32.779792     32.784055   0.000000   0.000000
   36       34.047248     34.047409   0.000000   0.000000
   37       34.053671     34.076059   0.000000   0.000000
   38       37.730637     37.695883   0.000000   0.000000
   39       37.740341     37.751576   0.000000   0.000000
   40       37.933542     37.957240   0.000000   0.000000
   41       38.110761     38.042647   0.000000   0.000000
   42       38.618801     38.821432   0.000000   0.000000
   43       38.643204     39.128295   0.000000   0.000000
   44       40.263526     40.784918   0.000000   0.000000
   45       44.322629     44.532635   0.000000   0.000000
   46       45.971853     46.020815   0.000000   0.000000
   47       46.455504     46.564369   0.000000   0.000000
   48       49.488831     49.216407   0.000000   0.000000
   49       52.262811     52.178716   0.000000   0.000000
   50       52.268946     52.259951   0.000000   0.000000
   51       54.337065     53.817092   0.000000   0.000000
   52       57.680700     54.431360   0.000000   0.000000
   53       59.366594     58.392219   0.000000   0.000000
   54       61.034383     59.851788   0.000000   0.000000
 
  0.4795918E+00  0.4795918E+00  0.4795918E+00  0.1000000E-01
    1      -19.673527    -19.673521   1.000000   1.000000
    2      -19.673527    -19.673521   1.000000   1.000000
    3      -19.629858    -19.629852   1.000000   1.000000
    4      -19.568172    -19.568166   1.000000   1.000000
    5      -19.568172    -19.568166   1.000000   1.000000
    6      -19.428496    -19.428490   1.000000   1.000000
    7      -19.428496    -19.428490   1.000000   1.000000
    8      -19.414596    -19.414590   1.000000   1.000000
    9      -19.351645    -19.351638   1.000000   1.000000
   10      -19.351645    -19.351638   1.000000   1.000000
   11       -5.619614     -5.619618   1.000000   1.000000
   12       -2.615039     -2.615043   1.000000   1.000000
   13        3.358743      3.358736   1.000000   1.000000
   14        3.358743      3.358736   1.000000   1.000000
   15        5.326014      5.326014   0.000000   0.000000
   16        8.717468      8.717465   0.000000   0.000000
   17        8.717468      8.717465   0.000000   0.000000
   18       12.224019     12.224017   0.000000   0.000000
   19       15.375722     15.375720   0.000000   0.000000
   20       16.189785     16.189783   0.000000   0.000000
   21       16.189785     16.189783   0.000000   0.000000
   22       16.339114     16.339115   0.000000   0.000000
   23       17.829192     17.829186   0.000000   0.000000
   24       17.829192     17.829186   0.000000   0.000000
   25       23.805577     23.805591   0.000000   0.000000
   26       26.462539     26.462633   0.000000   0.000000
   27       26.495118     26.495115   0.000000   0.000000
   28       26.495134     26.495262   0.000000   0.000000
   29       28.000327     28.000315   0.000000   0.000000
   30       28.000901     28.003820   0.000000   0.000000
   31       30.255725     30.255648   0.000000   0.000000
   32       31.744583     31.757915   0.000000   0.000000
   33       32.609822     32.600476   0.000000   0.000000
   34       32.634887     32.609319   0.000000   0.000000
   35       32.800248     32.786606   0.000000   0.000000
   36       34.055809     34.041701   0.000000   0.000000
   37       34.181750     34.079729   0.000000   0.000000
   38       37.735489     37.729779   0.000000   0.000000
   39       37.763776     37.762556   0.000000   0.000000
   40       38.144935     38.076080   0.000000   0.000000
   41       38.200891     38.180310   0.000000   0.000000
   42       38.907302     38.709339   0.000000   0.000000
   43       40.876979     40.360387   0.000000   0.000000
   44       44.367465     40.611079   0.000000   0.000000
   45       44.527966     44.567562   0.000000   0.000000
   46       45.467833     45.922819   0.000000   0.000000
   47       47.310782     46.801997   0.000000   0.000000
   48       51.673316     51.667624   0.000000   0.000000
   49       51.818810     51.813420   0.000000   0.000000
   50       52.096704     51.815459   0.000000   0.000000
   51       54.489011     54.470112   0.000000   0.000000
   52       58.805737     58.230313   0.000000   0.000000
   53       61.795875     59.576295   0.000000   0.000000
   54       63.008635     61.883306   0.000000   0.000000
 
  0.4693878E+00  0.4693878E+00  0.4693878E+00  0.1000000E-01
    1      -19.673492    -19.673485   1.000000   1.000000
    2      -19.673492    -19.673485   1.000000   1.000000
    3      -19.629956    -19.629949   1.000000   1.000000
    4      -19.568260    -19.568254   1.000000   1.000000
    5      -19.568260    -19.568254   1.000000   1.000000
    6      -19.428457    -19.428450   1.000000   1.000000
    7      -19.428457    -19.428450   1.000000   1.000000
    8      -19.414487    -19.414481   1.000000   1.000000
    9      -19.351692    -19.351686   1.000000   1.000000
   10      -19.351692    -19.351686   1.000000   1.000000
   11       -5.643489     -5.643493   1.000000   1.000000
   12       -2.578098     -2.578102   1.000000   1.000000
   13        3.363379      3.363372   1.000000   1.000000
   14        3.363379      3.363372   1.000000   1.000000
   15        5.330086      5.330086   0.000000   0.000000
   16        8.718779      8.718776   0.000000   0.000000
   17        8.718779      8.718776   0.000000   0.000000
   18       12.229252     12.229249   0.000000   0.000000
   19       15.187821     15.187820   0.000000   0.000000
   20       16.069043     16.069041   0.000000   0.000000
   21       16.069043     16.069041   0.000000   0.000000
   22       16.516578     16.516578   0.000000   0.000000
   23       17.971164     17.971158   0.000000   0.000000
   24       17.971164     17.971158   0.000000   0.000000
   25       23.638635     23.638627   0.000000   0.000000
   26       26.217263     26.217260   0.000000   0.000000
   27       26.217372     26.217340   0.000000   0.000000
   28       26.656235     26.655877   0.000000   0.000000
   29       28.293060     28.293058   0.000000   0.000000
   30       28.303781     28.296872   0.000000   0.000000
   31       29.947215     29.947080   0.000000   0.000000
   32       32.102759     32.084158   0.000000   0.000000
   33       32.585040     32.580660   0.000000   0.000000
   34       32.634330     32.604050   0.000000   0.000000
   35       32.799332     32.771766   0.000000   0.000000
   36       34.037705     34.037791   0.000000   0.000000
   37       34.174377     34.058473   0.000000   0.000000
   38       37.779626     37.780713   0.000000   0.000000
   39       37.792704     37.783942   0.000000   0.000000
   40       38.228582     38.225171   0.000000   0.000000
   41       38.244304     38.239006   0.000000   0.000000
   42       39.189904     39.155895   0.000000   0.000000
   43       41.860320     41.849760   0.000000   0.000000
   44       44.680534     44.226459   0.000000   0.000000
   45       45.241354     44.462577   0.000000   0.000000
   46       45.687720     45.505769   0.000000   0.000000
   47       47.314450     47.730428   0.000000   0.000000
   48       51.373065     51.373854   0.000000   0.000000
   49       52.455009     52.202075   0.000000   0.000000
   50       53.449357     53.439753   0.000000   0.000000
   51       54.688770     56.922480   0.000000   0.000000
   52       59.348682     59.874464   0.000000   0.000000
   53       62.184980     61.876567   0.000000   0.000000
   54       65.465301     63.592261   0.000000   0.000000
 
  0.4591837E+00  0.4591837E+00  0.4591837E+00  0.1000000E-01
    1      -19.673441    -19.673435   1.000000   1.000000
    2      -19.673441    -19.673435   1.000000   1.000000
    3      -19.630092    -19.630086   1.000000   1.000000
    4      -19.568385    -19.568379   1.000000   1.000000
    5      -19.568385    -19.568379   1.000000   1.000000
    6      -19.428400    -19.428394   1.000000   1.000000
    7      -19.428400    -19.428394   1.000000   1.000000
    8      -19.414336    -19.414329   1.000000   1.000000
    9      -19.351759    -19.351752   1.000000   1.000000
   10      -19.351759    -19.351752   1.000000   1.000000
   11       -5.675910     -5.675914   1.000000   1.000000
   12       -2.527383     -2.527388   1.000000   1.000000
   13        3.369865      3.369858   1.000000   1.000000
   14        3.369865      3.369858   1.000000   1.000000
   15        5.335781      5.335781   0.000000   0.000000
   16        8.720534      8.720531   0.000000   0.000000
   17        8.720534      8.720531   0.000000   0.000000
   18       12.236367     12.236365   0.000000   0.000000
   19       14.990642     14.990641   0.000000   0.000000
   20       15.926268     15.926266   0.000000   0.000000
   21       15.926268     15.926266   0.000000   0.000000
   22       16.697999     16.697999   0.000000   0.000000
   23       18.143731     18.143725   0.000000   0.000000
   24       18.143731     18.143725   0.000000   0.000000
   25       23.440704     23.440702   0.000000   0.000000
   26       25.926878     25.926875   0.000000   0.000000
   27       25.926878     25.926875   0.000000   0.000000
   28       26.888174     26.888166   0.000000   0.000000
   29       28.604284     28.604292   0.000000   0.000000
   30       28.604315     28.604360   0.000000   0.000000
   31       29.639808     29.639813   0.000000   0.000000
   32       32.425274     32.427419   0.000000   0.000000
   33       32.553476     32.552144   0.000000   0.000000
   34       32.553502     32.552673   0.000000   0.000000
   35       32.743840     32.743967   0.000000   0.000000
   36       34.000354     33.999990   0.000000   0.000000
   37       34.003496     34.002294   0.000000   0.000000
   38       37.746526     37.760340   0.000000   0.000000
   39       37.858619     37.836032   0.000000   0.000000
   40       37.920782     37.927014   0.000000   0.000000
   41       38.117660     38.162973   0.000000   0.000000
   42       38.466140     38.564809   0.000000   0.000000
   43       38.943598     38.914540   0.000000   0.000000
   44       40.242357     39.952019   0.000000   0.000000
   45       44.193883     44.405620   0.000000   0.000000
   46       45.884536     45.968815   0.000000   0.000000
   47       46.664652     46.500808   0.000000   0.000000
   48       47.643603     48.122579   0.000000   0.000000
   49       50.544981     50.102539   0.000000   0.000000
   50       50.893108     50.886470   0.000000   0.000000
   51       51.332315     50.897820   0.000000   0.000000
   52       53.061701     54.332482   0.000000   0.000000
   53       56.387615     56.103502   0.000000   0.000000
   54       60.408026     60.281241   0.000000   0.000000
 
  0.4489796E+00  0.4489796E+00  0.4489796E+00  0.1000000E-01
    1      -19.673374    -19.673368   1.000000   1.000000
    2      -19.673374    -19.673368   1.000000   1.000000
    3      -19.630266    -19.630260   1.000000   1.000000
    4      -19.568547    -19.568541   1.000000   1.000000
    5      -19.568547    -19.568541   1.000000   1.000000
    6      -19.428324    -19.428318   1.000000   1.000000
    7      -19.428324    -19.428318   1.000000   1.000000
    8      -19.414141    -19.414134   1.000000   1.000000
    9      -19.351843    -19.351837   1.000000   1.000000
   10      -19.351843    -19.351837   1.000000   1.000000
   11       -5.716011     -5.716015   1.000000   1.000000
   12       -2.463769     -2.463774   1.000000   1.000000
   13        3.378197      3.378190   1.000000   1.000000
   14        3.378197      3.378190   1.000000   1.000000
   15        5.343096      5.343096   0.000000   0.000000
   16        8.722651      8.722648   0.000000   0.000000
   17        8.722651      8.722648   0.000000   0.000000
   18       12.245129     12.245127   0.000000   0.000000
   19       14.790139     14.790138   0.000000   0.000000
   20       15.771504     15.771501   0.000000   0.000000
   21       15.771504     15.771501   0.000000   0.000000
   22       16.876211     16.876211   0.000000   0.000000
   23       18.336915     18.336909   0.000000   0.000000
   24       18.336915     18.336909   0.000000   0.000000
   25       23.228047     23.228045   0.000000   0.000000
   26       25.632526     25.632523   0.000000   0.000000
   27       25.632527     25.632524   0.000000   0.000000
   28       27.138720     27.138715   0.000000   0.000000
   29       28.925442     28.925438   0.000000   0.000000
   30       28.925512     28.925581   0.000000   0.000000
   31       29.346637     29.346624   0.000000   0.000000
   32       32.524087     32.523903   0.000000   0.000000
   33       32.530785     32.534425   0.000000   0.000000
   34       32.726961     32.724988   0.000000   0.000000
   35       32.772782     32.772495   0.000000   0.000000
   36       33.973542     33.973407   0.000000   0.000000
   37       33.987012     33.981536   0.000000   0.000000
   38       37.799511     37.800766   0.000000   0.000000
   39       37.885536     37.894289   0.000000   0.000000
   40       37.961473     37.986045   0.000000   0.000000
   41       38.278850     38.257693   0.000000   0.000000
   42       38.397213     38.400851   0.000000   0.000000
   43       39.235453     38.798537   0.000000   0.000000
   44       40.887066     40.875853   0.000000   0.000000
   45       44.214479     44.311370   0.000000   0.000000
   46       45.791834     45.781544   0.000000   0.000000
   47       46.303543     46.401282   0.000000   0.000000
   48       48.059671     48.184647   0.000000   0.000000
   49       50.433624     50.434470   0.000000   0.000000
   50       50.580188     50.725167   0.000000   0.000000
   51       52.761622     53.239225   0.000000   0.000000
   52       54.850936     55.298181   0.000000   0.000000
   53       58.882029     57.835882   0.000000   0.000000
   54       60.669605     60.311381   0.000000   0.000000
 
  0.4387755E+00  0.4387755E+00  0.4387755E+00  0.1000000E-01
    1      -19.673290    -19.673284   1.000000   1.000000
    2      -19.673290    -19.673284   1.000000   1.000000
    3      -19.630477    -19.630470   1.000000   1.000000
    4      -19.568747    -19.568741   1.000000   1.000000
    5      -19.568747    -19.568741   1.000000   1.000000
    6      -19.428227    -19.428221   1.000000   1.000000
    7      -19.428227    -19.428221   1.000000   1.000000
    8      -19.413903    -19.413896   1.000000   1.000000
    9      -19.351947    -19.351940   1.000000   1.000000
   10      -19.351947    -19.351940   1.000000   1.000000
   11       -5.762827     -5.762831   1.000000   1.000000
   12       -2.388227     -2.388231   1.000000   1.000000
   13        3.388369      3.388362   1.000000   1.000000
   14        3.388369      3.388362   1.000000   1.000000
   15        5.352023      5.352023   0.000000   0.000000
   16        8.725025      8.725022   0.000000   0.000000
   17        8.725025      8.725022   0.000000   0.000000
   18       12.255186     12.255184   0.000000   0.000000
   19       14.589044     14.589043   0.000000   0.000000
   20       15.610977     15.610974   0.000000   0.000000
   21       15.610977     15.610974   0.000000   0.000000
   22       17.046850     17.046850   0.000000   0.000000
   23       18.544572     18.544567   0.000000   0.000000
   24       18.544572     18.544567   0.000000   0.000000
   25       23.012364     23.012361   0.000000   0.000000
   26       25.337583     25.337579   0.000000   0.000000
   27       25.337584     25.337580   0.000000   0.000000
   28       27.383140     27.383119   0.000000   0.000000
   29       29.083817     29.083647   0.000000   0.000000
   30       29.253164     29.253172   0.000000   0.000000
   31       29.254719     29.253178   0.000000   0.000000
   32       32.492443     32.489278   0.000000   0.000000
   33       32.541653     32.521058   0.000000   0.000000
   34       32.702751     32.702491   0.000000   0.000000
   35       33.131612     33.128228   0.000000   0.000000
   36       33.946986     33.942231   0.000000   0.000000
   37       33.953992     33.966949   0.000000   0.000000
   38       37.898611     37.893665   0.000000   0.000000
   39       37.963736     37.974250   0.000000   0.000000
   40       38.217234     38.181012   0.000000   0.000000
   41       38.262802     38.310844   0.000000   0.000000
   42       38.730545     38.704254   0.000000   0.000000
   43       39.956109     39.374626   0.000000   0.000000
   44       42.929285     42.344857   0.000000   0.000000
   45       44.918311     44.559485   0.000000   0.000000
   46       45.749925     45.750286   0.000000   0.000000
   47       48.359106     47.059935   0.000000   0.000000
   48       50.008437     49.589547   0.000000   0.000000
   49       50.317391     49.656371   0.000000   0.000000
   50       52.020699     50.976372   0.000000   0.000000
   51       55.221476     54.416618   0.000000   0.000000
   52       57.290100     56.659647   0.000000   0.000000
   53       58.455523     59.070086   0.000000   0.000000
   54       60.286156     60.989473   0.000000   0.000000
 
  0.4285714E+00  0.4285714E+00  0.4285714E+00  0.1000000E-01
    1      -19.673189    -19.673183   1.000000   1.000000
    2      -19.673189    -19.673183   1.000000   1.000000
    3      -19.630723    -19.630717   1.000000   1.000000
    4      -19.568988    -19.568982   1.000000   1.000000
    5      -19.568988    -19.568982   1.000000   1.000000
    6      -19.428108    -19.428102   1.000000   1.000000
    7      -19.428108    -19.428102   1.000000   1.000000
    8      -19.413625    -19.413618   1.000000   1.000000
    9      -19.352070    -19.352064   1.000000   1.000000
   10      -19.352070    -19.352064   1.000000   1.000000
   11       -5.815367     -5.815371   1.000000   1.000000
   12       -2.301759     -2.301763   1.000000   1.000000
   13        3.400374      3.400367   1.000000   1.000000
   14        3.400374      3.400367   1.000000   1.000000
   15        5.362556      5.362556   0.000000   0.000000
   16        8.727525      8.727522   0.000000   0.000000
   17        8.727525      8.727522   0.000000   0.000000
   18       12.266030     12.266028   0.000000   0.000000
   19       14.389065     14.389063   0.000000   0.000000
   20       15.448544     15.448541   0.000000   0.000000
   21       15.448544     15.448541   0.000000   0.000000
   22       17.206139     17.206138   0.000000   0.000000
   23       18.762945     18.762939   0.000000   0.000000
   24       18.762945     18.762940   0.000000   0.000000
   25       22.802502     22.802504   0.000000   0.000000
   26       25.043639     25.043639   0.000000   0.000000
   27       25.043733     25.043727   0.000000   0.000000
   28       27.585945     27.583642   0.000000   0.000000
   29       28.893779     28.890707   0.000000   0.000000
   30       29.593299     29.591553   0.000000   0.000000
   31       29.623217     29.635527   0.000000   0.000000
   32       32.467110     32.463759   0.000000   0.000000
   33       32.478793     32.477943   0.000000   0.000000
   34       32.720374     32.700541   0.000000   0.000000
   35       33.867127     33.928384   0.000000   0.000000
   36       33.942376     33.933310   0.000000   0.000000
   37       33.954731     34.232599   0.000000   0.000000
   38       37.987490     37.973984   0.000000   0.000000
   39       38.202447     38.188873   0.000000   0.000000
   40       38.399651     38.398298   0.000000   0.000000
   41       38.973119     38.880534   0.000000   0.000000
   42       39.817624     39.356542   0.000000   0.000000
   43       41.995326     42.079805   0.000000   0.000000
   44       43.864355     44.584841   0.000000   0.000000
   45       44.788222     44.758525   0.000000   0.000000
   46       46.337635     45.686795   0.000000   0.000000
   47       49.013507     47.764338   0.000000   0.000000
   48       49.360695     49.237757   0.000000   0.000000
   49       49.509268     49.563888   0.000000   0.000000
   50       52.379782     50.556082   0.000000   0.000000
   51       53.028833     53.394673   0.000000   0.000000
   52       56.835053     55.970564   0.000000   0.000000
   53       59.627052     59.413396   0.000000   0.000000
   54       60.846317     60.430765   0.000000   0.000000
 
  0.4183673E+00  0.4183673E+00  0.4183673E+00  0.1000000E-01
    1      -19.673021    -19.673015   1.000000   1.000000
    2      -19.673021    -19.673015   1.000000   1.000000
    3      -19.631002    -19.630996   1.000000   1.000000
    4      -19.569264    -19.569258   1.000000   1.000000
    5      -19.569264    -19.569258   1.000000   1.000000
    6      -19.427921    -19.427915   1.000000   1.000000
    7      -19.427921    -19.427915   1.000000   1.000000
    8      -19.413246    -19.413240   1.000000   1.000000
    9      -19.352211    -19.352204   1.000000   1.000000
   10      -19.352211    -19.352204   1.000000   1.000000
   11       -5.872668     -5.872672   1.000000   1.000000
   12       -2.205343     -2.205347   1.000000   1.000000
   13        3.414203      3.414196   1.000000   1.000000
   14        3.414203      3.414196   1.000000   1.000000
   15        5.374685      5.374685   0.000000   0.000000
   16        8.729999      8.729996   0.000000   0.000000
   17        8.729999      8.729996   0.000000   0.000000
   18       12.276917     12.276915   0.000000   0.000000
   19       14.191621     14.191619   0.000000   0.000000
   20       15.286688     15.286685   0.000000   0.000000
   21       15.286688     15.286685   0.000000   0.000000
   22       17.350147     17.350147   0.000000   0.000000
   23       18.989655     18.989650   0.000000   0.000000
   24       18.989655     18.989650   0.000000   0.000000
   25       22.605709     22.605708   0.000000   0.000000
   26       24.751551     24.751548   0.000000   0.000000
   27       24.751568     24.751561   0.000000   0.000000
   28       27.651053     27.651732   0.000000   0.000000
   29       28.832615     28.835611   0.000000   0.000000
   30       29.923021     29.923842   0.000000   0.000000
   31       29.962515     29.958238   0.000000   0.000000
   32       32.412778     32.417198   0.000000   0.000000
   33       32.418554     32.424568   0.000000   0.000000
   34       32.650133     32.670054   0.000000   0.000000
   35       33.874035     33.873191   0.000000   0.000000
   36       33.881402     33.882930   0.000000   0.000000
   37       34.373718     34.286796   0.000000   0.000000
   38       38.043508     38.052129   0.000000   0.000000
   39       38.214831     38.218813   0.000000   0.000000
   40       38.401311     38.320567   0.000000   0.000000
   41       38.599631     38.532805   0.000000   0.000000
   42       39.635768     38.657380   0.000000   0.000000
   43       40.777878     41.086296   0.000000   0.000000
   44       42.004357     43.645639   0.000000   0.000000
   45       44.735032     44.946266   0.000000   0.000000
   46       45.956771     45.886490   0.000000   0.000000
   47       47.346067     48.151192   0.000000   0.000000
   48       49.059771     49.060026   0.000000   0.000000
   49       49.063459     49.142501   0.000000   0.000000
   50       49.511110     51.364151   0.000000   0.000000
   51       52.877713     54.344292   0.000000   0.000000
   52       55.930399     54.812944   0.000000   0.000000
   53       58.761467     58.543545   0.000000   0.000000
   54       61.079187     59.131549   0.000000   0.000000
 
  0.4081633E+00  0.4081633E+00  0.4081633E+00  0.1000000E-01
    1      -19.672883    -19.672877   1.000000   1.000000
    2      -19.672883    -19.672877   1.000000   1.000000
    3      -19.631318    -19.631311   1.000000   1.000000
    4      -19.569592    -19.569586   1.000000   1.000000
    5      -19.569592    -19.569586   1.000000   1.000000
    6      -19.427751    -19.427745   1.000000   1.000000
    7      -19.427751    -19.427745   1.000000   1.000000
    8      -19.412893    -19.412887   1.000000   1.000000
    9      -19.352377    -19.352370   1.000000   1.000000
   10      -19.352377    -19.352370   1.000000   1.000000
   11       -5.933833     -5.933837   1.000000   1.000000
   12       -2.099903     -2.099908   1.000000   1.000000
   13        3.429846      3.429839   1.000000   1.000000
   14        3.429846      3.429839   1.000000   1.000000
   15        5.388398      5.388398   0.000000   0.000000
   16        8.732267      8.732264   0.000000   0.000000
   17        8.732267      8.732264   0.000000   0.000000