       N       E                     dE             d eps       ncg     rms          ort
SDA:   1     0.100462390777E+03    0.10046E+03   -0.52952E+02  5400   0.132E+03 0.000E+00
DMP:   2     0.630160499728E+02   -0.37446E+02   -0.27053E+02  5400   0.439E+02 0.620E+02
DMP:   3     0.399232419338E+02   -0.23093E+02   -0.18809E+02  5400   0.278E+02 0.502E+02
DMP:   4     0.215706978004E+02   -0.18353E+02   -0.13400E+02  5400   0.187E+02 0.387E+02
DMP:   5     0.996940146242E+01   -0.11601E+02   -0.93093E+01  5400   0.119E+02 0.297E+02
DMP:   6     0.232843256332E+01   -0.76410E+01   -0.41720E+01  5400   0.492E+01 0.144E+02
DMP:   7    -0.109419149546E+01   -0.34226E+01   -0.18948E+01  5400   0.213E+01 0.682E+01
DMP:   8    -0.267328708572E+01   -0.15791E+01   -0.86599E+00  5400   0.941E+00 0.320E+01
DMP:   9    -0.341092627974E+01   -0.73764E+00   -0.39617E+00  5400   0.413E+00 0.151E+01
DMP:  10    -0.374434458324E+01   -0.33342E+00   -0.17039E+00  5400   0.172E+00 0.665E+00
DMP:  11    -0.388459007153E+01   -0.14025E+00   -0.68021E-01  5400   0.667E-01 0.271E+00
DMP:  12    -0.393927605564E+01   -0.54686E-01   -0.25073E-01  5400   0.237E-01 0.102E+00
DMP:  13    -0.395900571062E+01   -0.19730E-01   -0.85670E-02  5400   0.777E-02 0.357E-01
DMP:  14    -0.396563176105E+01   -0.66261E-02   -0.27402E-02  5400   0.239E-02 0.117E-01
DMP:  15    -0.396771696443E+01   -0.20852E-02   -0.81752E-03  5400   0.680E-03 0.357E-02
DMP:  16    -0.396832622887E+01   -0.60926E-03   -0.22293E-03  5400   0.175E-03 0.100E-02
DMP:  17    -0.396848748982E+01   -0.16126E-03   -0.54042E-04  5400   0.402E-04 0.249E-03
DMP:  18    -0.396852477232E+01   -0.37283E-04   -0.11118E-04  5400   0.826E-05 0.511E-04
   1 F= -.39685248E+01 E0= -.39685248E+01  d E =-.540596E-11  mag=    -0.0000
