<?xml version="1.0" encoding="ISO-8859-1"?>
<modeling>
 <generator>
  <i name="program" type="string">vasp </i>
  <i name="version" type="string">5.4.4.18Apr17-6-g9f103f2a35  </i>
  <i name="subversion" type="string">(build Sep 01 2023 15:42:28) complex            parallel </i>
  <i name="platform" type="string">LinuxIFC </i>
  <i name="date" type="string">2023 11 23 </i>
  <i name="time" type="string">02:45:01 </i>
 </generator>
 <incar>
  <i type="string" name="PREC">n</i>
  <i type="string" name="ALGO"> D</i>
  <i type="int" name="ISPIN">     2</i>
  <i type="int" name="ICHARG">    11</i>
  <i name="ENCUT">    450.00000000</i>
  <i type="int" name="NBANDS">    54</i>
  <v name="MAGMOM">      0.00000000      0.00000000      0.00000000      0.00000000      0.00000000      0.00000000</v>
  <i type="int" name="ISMEAR">     0</i>
  <i name="SIGMA">      0.05000000</i>
  <i type="int" name="LMAXMIX">     2</i>
  <i type="logical" name="LWAVE"> F  </i>
  <i type="logical" name="LCHARG"> F  </i>
  <i type="int" name="LORBIT">    11</i>
  <v type="int" name="KPOINT_BSE">    -1     0     0     0</v>
  <i type="string" name="GGA"> Pe</i>
  <i type="logical" name="LDAU"> T  </i>
  <v type="int" name="LDAUL">     1     0</v>
  <v name="LDAUU">     -2.31082283      0.00000000</v>
  <v name="LDAUJ">      0.00000000      0.00000000</v>
 </incar>
 <structure name="primitive_cell" >
  <crystal>
   <varray name="basis" >
    <v>       0.00000000       2.81650000       2.81650000 </v>
    <v>       2.81650000       0.00000000       2.81650000 </v>
    <v>       2.81650000       2.81650000       0.00000000 </v>
   </varray>
   <i name="volume">     44.68474278 </i>
   <varray name="rec_basis" >
    <v>      -0.17752530       0.17752530       0.17752530 </v>
    <v>       0.17752530      -0.17752530       0.17752530 </v>
    <v>       0.17752530       0.17752530      -0.17752530 </v>
   </varray>
  </crystal>
  <varray name="positions" >
   <v>       0.00000000       0.00000000       0.00000000 </v>
   <v>       0.25000000       0.25000000       0.25000000 </v>
  </varray>
 </structure>
 <varray name="primitive_index" >
  <v type="int" >        1 </v>
  <v type="int" >        2 </v>
 </varray>
 <kpoints>
  <generation param="listgenerated">
   <i name="divisions" type="int">      50 </i>
   <v>       0.50000000       0.50000000       0.50000000 </v>
   <v>       0.00000000       0.00000000       0.00000000 </v>
   <v>       0.50000000       0.00000000       0.50000000 </v>
  </generation>
  <varray name="kpointlist" >
   <v>       0.50000000       0.50000000       0.50000000 </v>
   <v>       0.48979592       0.48979592       0.48979592 </v>
   <v>       0.47959184       0.47959184       0.47959184 </v>
   <v>       0.46938776       0.46938776       0.46938776 </v>
   <v>       0.45918367       0.45918367       0.45918367 </v>
   <v>       0.44897959       0.44897959       0.44897959 </v>
   <v>       0.43877551       0.43877551       0.43877551 </v>
   <v>       0.42857143       0.42857143       0.42857143 </v>
   <v>       0.41836735       0.41836735       0.41836735 </v>
   <v>       0.40816327       0.40816327       0.40816327 </v>
   <v>       0.39795918       0.39795918       0.39795918 </v>
   <v>       0.38775510       0.38775510       0.38775510 </v>
   <v>       0.37755102       0.37755102       0.37755102 </v>
   <v>       0.36734694       0.36734694       0.36734694 </v>
   <v>       0.35714286       0.35714286       0.35714286 </v>
   <v>       0.34693878       0.34693878       0.34693878 </v>
   <v>       0.33673469       0.33673469       0.33673469 </v>
   <v>       0.32653061       0.32653061       0.32653061 </v>
   <v>       0.31632653       0.31632653       0.31632653 </v>
   <v>       0.30612245       0.30612245       0.30612245 </v>
   <v>       0.29591837       0.29591837       0.29591837 </v>
   <v>       0.28571429       0.28571429       0.28571429 </v>
   <v>       0.27551020       0.27551020       0.27551020 </v>
   <v>       0.26530612       0.26530612       0.26530612 </v>
   <v>       0.25510204       0.25510204       0.25510204 </v>
   <v>       0.24489796       0.24489796       0.24489796 </v>
   <v>       0.23469388       0.23469388       0.23469388 </v>
   <v>       0.22448980       0.22448980       0.22448980 </v>
   <v>       0.21428571       0.21428571       0.21428571 </v>
   <v>       0.20408163       0.20408163       0.20408163 </v>
   <v>       0.19387755       0.19387755       0.19387755 </v>
   <v>       0.18367347       0.18367347       0.18367347 </v>
   <v>       0.17346939       0.17346939       0.17346939 </v>
   <v>       0.16326531       0.16326531       0.16326531 </v>
   <v>       0.15306122       0.15306122       0.15306122 </v>
   <v>       0.14285714       0.14285714       0.14285714 </v>
   <v>       0.13265306       0.13265306       0.13265306 </v>
   <v>       0.12244898       0.12244898       0.12244898 </v>
   <v>       0.11224490       0.11224490       0.11224490 </v>
   <v>       0.10204082       0.10204082       0.10204082 </v>
   <v>       0.09183673       0.09183673       0.09183673 </v>
   <v>       0.08163265       0.08163265       0.08163265 </v>
   <v>       0.07142857       0.07142857       0.07142857 </v>
   <v>       0.06122449       0.06122449       0.06122449 </v>
   <v>       0.05102041       0.05102041       0.05102041 </v>
   <v>       0.04081633       0.04081633       0.04081633 </v>
   <v>       0.03061224       0.03061224       0.03061224 </v>
   <v>       0.02040816       0.02040816       0.02040816 </v>
   <v>       0.01020408       0.01020408       0.01020408 </v>
   <v>       0.00000000       0.00000000       0.00000000 </v>
   <v>       0.00000000       0.00000000       0.00000000 </v>
   <v>       0.01020408       0.00000000       0.01020408 </v>
   <v>       0.02040816       0.00000000       0.02040816 </v>
   <v>       0.03061224       0.00000000       0.03061224 </v>
   <v>       0.04081633       0.00000000       0.04081633 </v>
   <v>       0.05102041       0.00000000       0.05102041 </v>
   <v>       0.06122449       0.00000000       0.06122449 </v>
   <v>       0.07142857       0.00000000       0.07142857 </v>
   <v>       0.08163265       0.00000000       0.08163265 </v>
   <v>       0.09183673       0.00000000       0.09183673 </v>
   <v>       0.10204082       0.00000000       0.10204082 </v>
   <v>       0.11224490       0.00000000       0.11224490 </v>
   <v>       0.12244898       0.00000000       0.12244898 </v>
   <v>       0.13265306       0.00000000       0.13265306 </v>
   <v>       0.14285714       0.00000000       0.14285714 </v>
   <v>       0.15306122       0.00000000       0.15306122 </v>
   <v>       0.16326531       0.00000000       0.16326531 </v>
   <v>       0.17346939       0.00000000       0.17346939 </v>
   <v>       0.18367347       0.00000000       0.18367347 </v>
   <v>       0.19387755       0.00000000       0.19387755 </v>
   <v>       0.20408163       0.00000000       0.20408163 </v>
   <v>       0.21428571       0.00000000       0.21428571 </v>
   <v>       0.22448980       0.00000000       0.22448980 </v>
   <v>       0.23469388       0.00000000       0.23469388 </v>
   <v>       0.24489796       0.00000000       0.24489796 </v>
   <v>       0.25510204       0.00000000       0.25510204 </v>
   <v>       0.26530612       0.00000000       0.26530612 </v>
   <v>       0.27551020       0.00000000       0.27551020 </v>
   <v>       0.28571429       0.00000000       0.28571429 </v>
   <v>       0.29591837       0.00000000       0.29591837 </v>
   <v>       0.30612245       0.00000000       0.30612245 </v>
   <v>       0.31632653       0.00000000       0.31632653 </v>
   <v>       0.32653061       0.00000000       0.32653061 </v>
   <v>       0.33673469       0.00000000       0.33673469 </v>
   <v>       0.34693878       0.00000000       0.34693878 </v>
   <v>       0.35714286       0.00000000       0.35714286 </v>
   <v>       0.36734694       0.00000000       0.36734694 </v>
   <v>       0.37755102       0.00000000       0.37755102 </v>
   <v>       0.38775510       0.00000000       0.38775510 </v>
   <v>       0.39795918       0.00000000       0.39795918 </v>
   <v>       0.40816327       0.00000000       0.40816327 </v>
   <v>       0.41836735       0.00000000       0.41836735 </v>
   <v>       0.42857143       0.00000000       0.42857143 </v>
   <v>       0.43877551       0.00000000       0.43877551 </v>
   <v>       0.44897959       0.00000000       0.44897959 </v>
   <v>       0.45918367       0.00000000       0.45918367 </v>
   <v>       0.46938776       0.00000000       0.46938776 </v>
   <v>       0.47959184       0.00000000       0.47959184 </v>
   <v>       0.48979592       0.00000000       0.48979592 </v>
   <v>       0.50000000       0.00000000       0.50000000 </v>
  </varray>
  <varray name="weights" >
   <v>       0.01000000 </v>
   <v>       0.01000000 </v>
   <v>       0.01000000 </v>
   <v>       0.01000000 </v>
   <v>       0.01000000 </v>
   <v>       0.01000000 </v>
   <v>       0.01000000 </v>
   <v>       0.01000000 </v>
   <v>       0.01000000 </v>
   <v>       0.01000000 </v>
   <v>       0.01000000 </v>
   <v>       0.01000000 </v>
   <v>       0.01000000 </v>
   <v>       0.01000000 </v>
   <v>       0.01000000 </v>
   <v>       0.01000000 </v>
   <v>       0.01000000 </v>
   <v>       0.01000000 </v>
   <v>       0.01000000 </v>
   <v>       0.01000000 </v>
   <v>       0.01000000 </v>
   <v>       0.01000000 </v>
   <v>       0.01000000 </v>
   <v>       0.01000000 </v>
   <v>       0.01000000 </v>
   <v>       0.01000000 </v>
   <v>       0.01000000 </v>
   <v>       0.01000000 </v>
   <v>       0.01000000 </v>
   <v>       0.01000000 </v>
   <v>       0.01000000 </v>
   <v>       0.01000000 </v>
   <v>       0.01000000 </v>
   <v>       0.01000000 </v>
   <v>       0.01000000 </v>
   <v>       0.01000000 </v>
   <v>       0.01000000 </v>
   <v>       0.01000000 </v>
   <v>       0.01000000 </v>
   <v>       0.01000000 </v>
   <v>       0.01000000 </v>
   <v>       0.01000000 </v>
   <v>       0.01000000 </v>
   <v>       0.01000000 </v>
   <v>       0.01000000 </v>
   <v>       0.01000000 </v>
   <v>       0.01000000 </v>
   <v>       0.01000000 </v>
   <v>       0.01000000 </v>
   <v>       0.01000000 </v>
   <v>       0.01000000 </v>
   <v>       0.01000000 </v>
   <v>       0.01000000 </v>
   <v>       0.01000000 </v>
   <v>       0.01000000 </v>
   <v>       0.01000000 </v>
   <v>       0.01000000 </v>
   <v>       0.01000000 </v>
   <v>       0.01000000 </v>
   <v>       0.01000000 </v>
   <v>       0.01000000 </v>
   <v>       0.01000000 </v>
   <v>       0.01000000 </v>
   <v>       0.01000000 </v>
   <v>       0.01000000 </v>
   <v>       0.01000000 </v>
   <v>       0.01000000 </v>
   <v>       0.01000000 </v>
   <v>       0.01000000 </v>
   <v>       0.01000000 </v>
   <v>       0.01000000 </v>
   <v>       0.01000000 </v>
   <v>       0.01000000 </v>
   <v>       0.01000000 </v>
   <v>       0.01000000 </v>
   <v>       0.01000000 </v>
   <v>       0.01000000 </v>
   <v>       0.01000000 </v>
   <v>       0.01000000 </v>
   <v>       0.01000000 </v>
   <v>       0.01000000 </v>
   <v>       0.01000000 </v>
   <v>       0.01000000 </v>
   <v>       0.01000000 </v>
   <v>       0.01000000 </v>
   <v>       0.01000000 </v>
   <v>       0.01000000 </v>
   <v>       0.01000000 </v>
   <v>       0.01000000 </v>
   <v>       0.01000000 </v>
   <v>       0.01000000 </v>
   <v>       0.01000000 </v>
   <v>       0.01000000 </v>
   <v>       0.01000000 </v>
   <v>       0.01000000 </v>
   <v>       0.01000000 </v>
   <v>       0.01000000 </v>
   <v>       0.01000000 </v>
   <v>       0.01000000 </v>
   <v>       0.01000000 </v>
  </varray>
 </kpoints>
 <parameters>
  <separator name="general" >
   <i type="string" name="SYSTEM">unknown system</i>
   <i type="logical" name="LCOMPAT"> F  </i>
  </separator>
  <separator name="electronic" >
   <i type="string" name="PREC">n</i>
   <i name="ENMAX">    450.00000000</i>
   <i name="ENAUG">    531.35600000</i>
   <i name="EDIFF">      0.00010000</i>
   <i type="int" name="IALGO">    53</i>
   <i type="int" name="IWAVPR">    10</i>
   <i type="int" name="NBANDS">    54</i>
   <i name="NELECT">     28.00000000</i>
   <i type="int" name="TURBO">     0</i>
   <i type="int" name="IRESTART">     0</i>
   <i type="int" name="NREBOOT">     0</i>
   <i type="int" name="NMIN">     0</i>
   <i name="EREF">      0.00000000</i>
   <separator name="electronic smearing" >
    <i type="int" name="ISMEAR">     0</i>
    <i name="SIGMA">      0.05000000</i>
    <i name="KSPACING">      0.50000000</i>
    <i type="logical" name="KGAMMA"> T  </i>
   </separator>
   <separator name="electronic projectors" >
    <i type="logical" name="LREAL"> F  </i>
    <v name="ROPT">      0.00000000</v>
    <i type="int" name="LMAXPAW">  -100</i>
    <i type="int" name="LMAXMIX">     2</i>
    <i type="logical" name="NLSPLINE"> F  </i>
   </separator>
   <separator name="electronic startup" >
    <i type="int" name="ISTART">     1</i>
    <i type="int" name="ICHARG">    11</i>
    <i type="int" name="INIWAV">     1</i>
   </separator>
   <separator name="electronic spin" >
    <i type="int" name="ISPIN">     2</i>
    <i type="logical" name="LNONCOLLINEAR"> F  </i>
    <v name="MAGMOM">      0.00000000      0.00000000</v>
    <i name="NUPDOWN">     -1.00000000</i>
    <i type="logical" name="LSORBIT"> F  </i>
    <v name="SAXIS">      0.00000000      0.00000000      1.00000000</v>
    <i type="logical" name="LSPIRAL"> F  </i>
    <v name="QSPIRAL">      0.00000000      0.00000000      0.00000000</v>
    <i type="logical" name="LZEROZ"> F  </i>
   </separator>
   <separator name="electronic exchange-correlation" >
    <i type="logical" name="LASPH"> F  </i>
    <i type="logical" name="LMETAGGA"> F  </i>
   </separator>
   <separator name="electronic convergence" >
    <i type="int" name="NELM">    60</i>
    <i type="int" name="NELMDL">     0</i>
    <i type="int" name="NELMIN">     2</i>
    <i name="ENINI">    450.00000000</i>
    <separator name="electronic convergence detail" >
     <i type="logical" name="LDIAG"> T  </i>
     <i type="logical" name="LSUBROT"> F  </i>
     <i name="WEIMIN">      0.00000000</i>
     <i name="EBREAK">      0.00000046</i>
     <i name="DEPER">      0.30000000</i>
     <i type="int" name="NRMM">     4</i>
     <i name="TIME">      0.40000000</i>
    </separator>
   </separator>
   <separator name="electronic mixer" >
    <i name="AMIX">      0.40000000</i>
    <i name="BMIX">      1.00000000</i>
    <i name="AMIN">      0.10000000</i>
    <i name="AMIX_MAG">      1.60000000</i>
    <i name="BMIX_MAG">      1.00000000</i>
    <separator name="electronic mixer details" >
     <i type="int" name="IMIX">     4</i>
     <i type="logical" name="MIXFIRST"> F  </i>
     <i type="int" name="MAXMIX">   -45</i>
     <i name="WC">    100.00000000</i>
     <i type="int" name="INIMIX">     1</i>
     <i type="int" name="MIXPRE">     1</i>
     <i type="int" name="MREMOVE">     5</i>
    </separator>
   </separator>
   <separator name="electronic dipolcorrection" >
    <i type="logical" name="LDIPOL"> F  </i>
    <i type="logical" name="LMONO"> F  </i>
    <i type="int" name="IDIPOL">     0</i>
    <i name="EPSILON">      1.00000000</i>
    <v name="DIPOL">   -100.00000000   -100.00000000   -100.00000000</v>
    <i name="EFIELD">      0.00000000</i>
   </separator>
  </separator>
  <separator name="grids" >
   <i type="int" name="NGX">    24</i>
   <i type="int" name="NGY">    24</i>
   <i type="int" name="NGZ">    24</i>
   <i type="int" name="NGXF">    48</i>
   <i type="int" name="NGYF">    48</i>
   <i type="int" name="NGZF">    48</i>
   <i type="logical" name="ADDGRID"> F  </i>
  </separator>
  <separator name="ionic" >
   <i type="int" name="NSW">     0</i>
   <i type="int" name="IBRION">    -1</i>
   <i type="int" name="MDALGO">     0</i>
   <i type="int" name="ISIF">     2</i>
   <i name="PSTRESS">      0.00000000</i>
   <i name="EDIFFG">      0.00100000</i>
   <i type="int" name="NFREE">     0</i>
   <i name="POTIM">      0.50000000</i>
   <i name="SMASS">     -3.00000000</i>
   <i name="SCALEE">      1.00000000</i>
  </separator>
  <separator name="ionic md" >
   <i name="TEBEG">      0.00010000</i>
   <i name="TEEND">      0.00010000</i>
   <i type="int" name="NBLOCK">     1</i>
   <i type="int" name="KBLOCK">     1</i>
   <i type="int" name="NPACO">   256</i>
   <i name="APACO">     16.00000000</i>
  </separator>
  <separator name="symmetry" >
   <i type="int" name="ISYM">     2</i>
   <i name="SYMPREC">      0.00001000</i>
  </separator>
  <separator name="dos" >
   <i type="int" name="LORBIT">    11</i>
   <v name="RWIGS">     -1.00000000</v>
   <i type="int" name="NEDOS">   301</i>
   <i name="EMIN">     10.00000000</i>
   <i name="EMAX">    -10.00000000</i>
   <i name="EFERMI">      0.00000000</i>
  </separator>
  <separator name="writing" >
   <i type="int" name="NWRITE">     2</i>
   <i type="logical" name="LWAVE"> F  </i>
   <i type="logical" name="LDOWNSAMPLE"> F  </i>
   <i type="logical" name="LCHARG"> F  </i>
   <i type="logical" name="LPARD"> F  </i>
   <i type="logical" name="LVTOT"> F  </i>
   <i type="logical" name="LVHAR"> F  </i>
   <i type="logical" name="LELF"> F  </i>
   <i type="logical" name="LOPTICS"> F  </i>
   <v name="STM">      0.00000000      0.00000000      0.00000000      0.00000000      0.00000000      0.00000000      0.00000000</v>
  </separator>
  <separator name="performance" >
   <i type="int" name="NPAR">     3</i>
   <i type="int" name="NSIM">     4</i>
   <i type="int" name="NBLK">    -1</i>
   <i type="logical" name="LPLANE"> T  </i>
   <i type="logical" name="LSCALAPACK"> T  </i>
   <i type="logical" name="LSCAAWARE"> F  </i>
   <i type="logical" name="LSCALU"> F  </i>
   <i type="logical" name="LASYNC"> F  </i>
   <i type="logical" name="LORBITALREAL"> F  </i>
  </separator>
  <separator name="miscellaneous" >
   <i type="int" name="IDIOT">     3</i>
   <i type="int" name="ISPECIAL">     0</i>
   <i type="logical" name="LMUSIC"> F  </i>
   <v name="POMASS">     72.61000000</v>
   <v name="DARWINR">      0.00000000</v>
   <v name="DARWINV">      1.00000000</v>
   <i type="logical" name="LCORR"> T  </i>
  </separator>
  <i type="logical" name="GGA_COMPAT"> T  </i>
  <i type="logical" name="LBERRY"> F  </i>
  <i type="int" name="ICORELEVEL">     0</i>
  <i type="logical" name="LDAU"> T  </i>
  <v type="int" name="LDAUTYPE">     2</v>
  <v type="int" name="LDAUL">     1</v>
  <v name="LDAUU">     -2.31082283</v>
  <v name="LDAUJ">      0.00000000</v>
  <i type="int" name="LDAUPRINT">     0</i>
  <i type="int" name="I_CONSTRAINED_M">     0</i>
  <separator name="electronic exchange-correlation" >
   <i type="string" name="GGA">PE</i>
   <i type="int" name="VOSKOWN">     0</i>
   <i type="logical" name="LHFCALC"> F  </i>
   <i type="string" name="PRECFOCK"></i>
   <i type="logical" name="LSYMGRAD"> F  </i>
   <i type="logical" name="LHFONE"> F  </i>
   <i type="logical" name="LRHFCALC"> F  </i>
   <i type="logical" name="LTHOMAS"> F  </i>
   <i type="logical" name="LMODELHF"> F  </i>
   <i name="ENCUT4O">     -1.00000000</i>
   <i type="int" name="EXXOEP">     0</i>
   <i type="int" name="FOURORBIT">     0</i>
   <i name="AEXX">      0.00000000</i>
   <i name="HFALPHA">      0.00000000</i>
   <i name="MCALPHA">      0.00000000</i>
   <i name="ALDAX">      1.00000000</i>
   <i name="AGGAX">      1.00000000</i>
   <i name="ALDAC">      1.00000000</i>
   <i name="AGGAC">      1.00000000</i>
   <i type="int" name="NKREDX">     1</i>
   <i type="int" name="NKREDY">     1</i>
   <i type="int" name="NKREDZ">     1</i>
   <i type="logical" name="SHIFTRED"> F  </i>
   <i type="logical" name="ODDONLY"> F  </i>
   <i type="logical" name="EVENONLY"> F  </i>
   <i type="int" name="LMAXFOCK">     0</i>
   <i type="int" name="NMAXFOCKAE">     0</i>
   <i type="logical" name="LFOCKAEDFT"> F  </i>
   <i name="HFSCREEN">      0.00000000</i>
   <i name="HFSCREENC">      0.00000000</i>
   <i type="int" name="NBANDSGWLOW">     0</i>
  </separator>
  <separator name="vdW DFT" >
   <i type="logical" name="LUSE_VDW"> F  </i>
   <i name="Zab_VDW">     -0.84910000</i>
   <i name="PARAM1">      0.12340000</i>
   <i name="PARAM2">      1.00000000</i>
   <i name="PARAM3">      0.00000000</i>
  </separator>
  <separator name="model GW" >
   <i type="int" name="MODEL_GW">     0</i>
   <i name="MODEL_EPS0">     13.40542284</i>
   <i name="MODEL_ALPHA">      1.00000000</i>
  </separator>
  <separator name="linear response parameters" >
   <i type="logical" name="LEPSILON"> F  </i>
   <i type="logical" name="LRPA"> F  </i>
   <i type="logical" name="LNABLA"> F  </i>
   <i type="logical" name="LVEL"> F  </i>
   <i type="int" name="KINTER">     0</i>
   <i name="CSHIFT">      0.10000000</i>
   <i name="OMEGAMAX">     -1.00000000</i>
   <i name="DEG_THRESHOLD">      0.00200000</i>
   <i name="RTIME">     -0.10000000</i>
   <i name="WPLASMAI">      0.00000000</i>
   <v name="DFIELD">      0.00000000      0.00000000      0.00000000</v>
   <v name="WPLASMA">      0.00000000      0.00000000      0.00000000      0.00000000      0.00000000      0.00000000      0.00000000      0.00000000      0.00000000</v>
  </separator>
  <separator name="orbital magnetization" >
   <i type="logical" name="NUCIND"> F  </i>
   <v name="MAGPOS">      0.00000000      0.00000000      0.00000000</v>
   <i type="logical" name="LNICSALL"> T  </i>
   <i type="logical" name="ORBITALMAG"> F  </i>
   <i type="logical" name="LMAGBLOCH"> F  </i>
   <i type="logical" name="LCHIMAG"> F  </i>
   <i type="logical" name="LGAUGE"> T  </i>
   <i type="int" name="MAGATOM">     0</i>
   <v name="MAGDIPOL">      0.00000000      0.00000000      0.00000000</v>
   <v name="AVECCONST">      0.00000000      0.00000000      0.00000000</v>
  </separator>
  <separator name="response functions" >
   <i type="logical" name="LADDER"> F  </i>
   <i type="logical" name="LRPAFORCE"> F  </i>
   <i type="logical" name="LFXC"> F  </i>
   <i type="logical" name="LHARTREE"> T  </i>
   <i type="int" name="IBSE">     0</i>
   <v type="int" name="KPOINT">    -1     0     0     0</v>
   <i type="logical" name="LTCTE"> F  </i>
   <i type="logical" name="LTETE"> F  </i>
   <i type="logical" name="LTRIPLET"> F  </i>
   <i type="logical" name="LFXCEPS"> F  </i>
   <i type="logical" name="LFXHEG"> F  </i>
   <i type="int" name="NATURALO">     2</i>
   <i type="logical" name="L2ORDER"> F  </i>
   <i type="logical" name="LMP2LT"> F  </i>
   <i type="logical" name="LUSEW"> F  </i>
   <i name="ENCUTGW">     -2.00000000</i>
   <i name="ENCUTGWSOFT">     -2.00000000</i>
   <i name="ENCUTLF">     -1.00000000</i>
   <i type="int" name="LMAXMP2">    -1</i>
   <i name="SCISSOR">      0.00000000</i>
   <i type="int" name="NOMEGA">     0</i>
   <i type="int" name="NOMEGAR">     0</i>
   <i type="int" name="NBANDSGW">    -1</i>
   <i type="int" name="NBANDSO">    -1</i>
   <i type="int" name="NBANDSV">    -1</i>
   <i type="int" name="NELM">     1</i>
   <i type="int" name="NELMHF">     1</i>
   <i type="int" name="DIM">     3</i>
   <i type="int" name="ANTIRES">     0</i>
   <i name="OMEGAMAX">    -30.00000000</i>
   <i name="OMEGAMIN">    -30.00000000</i>
   <i name="OMEGATL">   -200.00000000</i>
   <i type="int" name="OMEGAGRID">   140</i>
   <i name="CSHIFT">     -0.10000000</i>
   <i type="logical" name="SELFENERGY"> F  </i>
   <i type="logical" name="LSPECTRAL"> F  </i>
   <i type="logical" name="LSPECTRALGW"> F  </i>
   <i type="logical" name="LSINGLES"> F  </i>
   <i type="logical" name="LFERMIGW"> F  </i>
   <i type="logical" name="ODDONLYGW"> F  </i>
   <i type="logical" name="EVENONLYGW"> F  </i>
   <i type="int" name="NKREDLFX">     1</i>
   <i type="int" name="NKREDLFY">     1</i>
   <i type="int" name="NKREDLFZ">     1</i>
   <i type="int" name="MAXMEM">  2800</i>
   <i type="int" name="TELESCOPE">     0</i>
   <i type="int" name="TAUPAR">     1</i>
   <i type="int" name="OMEGAPAR">    -1</i>
   <i name="LAMBDA">      1.00000000</i>
  </separator>
  <separator name="External order field" >
   <i name="OFIELD_KAPPA">      0.00000000</i>
   <v name="OFIELD_K">      0.00000000      0.00000000      0.00000000</v>
   <i name="OFIELD_Q6_NEAR">      0.00000000</i>
   <i name="OFIELD_Q6_FAR">      0.00000000</i>
   <i name="OFIELD_A">      0.00000000</i>
  </separator>
 </parameters>
 <atominfo>
  <atoms>       2 </atoms>
  <types>       1 </types>
  <array name="atoms" >
   <dimension dim="1">ion</dimension>
   <field type="string">element</field>
   <field type="int">atomtype</field>
   <set>
    <rc><c>Ge</c><c>   1</c></rc>
    <rc><c>Ge</c><c>   1</c></rc>
   </set>
  </array>
  <array name="atomtypes" >
   <dimension dim="1">type</dimension>
   <field type="int">atomspertype</field>
   <field type="string">element</field>
   <field>mass</field>
   <field>valence</field>
   <field type="string">pseudopotential</field>
   <set>
    <rc><c>   2</c><c>Ge</c><c>     72.61000000</c><c>     14.00000000</c><c>  PAW_PBE Ge_d 03Jul2007                </c></rc>
   </set>
  </array>
 </atominfo>
 <structure name="initialpos" >
  <crystal>
   <varray name="basis" >
    <v>       0.00000000       2.81650000       2.81650000 </v>
    <v>       2.81650000       0.00000000       2.81650000 </v>
    <v>       2.81650000       2.81650000       0.00000000 </v>
   </varray>
   <i name="volume">     44.68474278 </i>
   <varray name="rec_basis" >
    <v>      -0.17752530       0.17752530       0.17752530 </v>
    <v>       0.17752530      -0.17752530       0.17752530 </v>
    <v>       0.17752530       0.17752530      -0.17752530 </v>
   </varray>
  </crystal>
  <varray name="positions" >
   <v>       0.00000000       0.00000000       0.00000000 </v>
   <v>       0.25000000       0.25000000       0.25000000 </v>
  </varray>
 </structure>
 <calculation>
  <scstep>
   <time name="total">    0.51    0.60</time>
   <energy>
    <i name="alphaZ">    131.13230232 </i>
    <i name="ewald">  -2699.00129049 </i>
    <i name="hartreedc">  -1509.05935128 </i>
    <i name="XCdc">    145.87355606 </i>
    <i name="pawpsdc">   4746.36796906 </i>
    <i name="pawaedc">  -5623.20081930 </i>
    <i name="eentropy">     -0.00000000 </i>
    <i name="bandstr">   -284.11505310 </i>
    <i name="atom">   5192.46507749 </i>
    <i name="e_fr_energy">    100.46239078 </i>
    <i name="e_wo_entrp">    100.46239078 </i>
    <i name="e_0_energy">    100.46239078 </i>
   </energy>
  </scstep>
  <scstep>
   <time name="total">    0.33    0.34</time>
   <energy>
    <i name="e_fr_energy">     63.01604997 </i>
    <i name="e_wo_entrp">     63.01604997 </i>
    <i name="e_0_energy">     63.01604997 </i>
   </energy>
  </scstep>
  <scstep>
   <time name="total">    0.33    0.33</time>
   <energy>
    <i name="e_fr_energy">     39.92324193 </i>
    <i name="e_wo_entrp">     39.92397166 </i>
    <i name="e_0_energy">     39.92360680 </i>
   </energy>
  </scstep>
  <scstep>
   <time name="total">    0.33    0.34</time>
   <energy>
    <i name="e_fr_energy">     21.57069780 </i>
    <i name="e_wo_entrp">     21.57336594 </i>
    <i name="e_0_energy">     21.57203187 </i>
   </energy>
  </scstep>
  <scstep>
   <time name="total">    0.33    0.33</time>
   <energy>
    <i name="e_fr_energy">      9.96940146 </i>
    <i name="e_wo_entrp">      9.97124237 </i>
    <i name="e_0_energy">      9.97032191 </i>
   </energy>
  </scstep>
  <scstep>
   <time name="total">    0.33    0.33</time>
   <energy>
    <i name="e_fr_energy">      2.32843256 </i>
    <i name="e_wo_entrp">      2.33025218 </i>
    <i name="e_0_energy">      2.32934237 </i>
   </energy>
  </scstep>
  <scstep>
   <time name="total">    0.33    0.33</time>
   <energy>
    <i name="e_fr_energy">     -1.09419150 </i>
    <i name="e_wo_entrp">     -1.09412790 </i>
    <i name="e_0_energy">     -1.09415970 </i>
   </energy>
  </scstep>
  <scstep>
   <time name="total">    0.32    0.33</time>
   <energy>
    <i name="e_fr_energy">     -2.67328709 </i>
    <i name="e_wo_entrp">     -2.67328701 </i>
    <i name="e_0_energy">     -2.67328705 </i>
   </energy>
  </scstep>
  <scstep>
   <time name="total">    0.32    0.33</time>
   <energy>
    <i name="e_fr_energy">     -3.41092628 </i>
    <i name="e_wo_entrp">     -3.41092628 </i>
    <i name="e_0_energy">     -3.41092628 </i>
   </energy>
  </scstep>
  <scstep>
   <time name="total">    0.32    0.33</time>
   <energy>
    <i name="e_fr_energy">     -3.74434458 </i>
    <i name="e_wo_entrp">     -3.74434458 </i>
    <i name="e_0_energy">     -3.74434458 </i>
   </energy>
  </scstep>
  <scstep>
   <time name="total">    0.32    0.33</time>
   <energy>
    <i name="e_fr_energy">     -3.88459007 </i>
    <i name="e_wo_entrp">     -3.88459007 </i>
    <i name="e_0_energy">     -3.88459007 </i>
   </energy>
  </scstep>
  <scstep>
   <time name="total">    0.32    0.32</time>
   <energy>
    <i name="e_fr_energy">     -3.93927606 </i>
    <i name="e_wo_entrp">     -3.93927606 </i>
    <i name="e_0_energy">     -3.93927606 </i>
   </energy>
  </scstep>
  <scstep>
   <time name="total">    0.32    0.33</time>
   <energy>
    <i name="e_fr_energy">     -3.95900571 </i>
    <i name="e_wo_entrp">     -3.95900571 </i>
    <i name="e_0_energy">     -3.95900571 </i>
   </energy>
  </scstep>
  <scstep>
   <time name="total">    0.33    0.33</time>
   <energy>
    <i name="e_fr_energy">     -3.96563176 </i>
    <i name="e_wo_entrp">     -3.96563176 </i>
    <i name="e_0_energy">     -3.96563176 </i>
   </energy>
  </scstep>
  <scstep>
   <time name="total">    0.32    0.33</time>
   <energy>
    <i name="e_fr_energy">     -3.96771696 </i>
    <i name="e_wo_entrp">     -3.96771696 </i>
    <i name="e_0_energy">     -3.96771696 </i>
   </energy>
  </scstep>
  <scstep>
   <time name="total">    0.32    0.33</time>
   <energy>
    <i name="e_fr_energy">     -3.96832623 </i>
    <i name="e_wo_entrp">     -3.96832623 </i>
    <i name="e_0_energy">     -3.96832623 </i>
   </energy>
  </scstep>
  <scstep>
   <time name="total">    0.32    0.33</time>
   <energy>
    <i name="e_fr_energy">     -3.96848749 </i>
    <i name="e_wo_entrp">     -3.96848749 </i>
    <i name="e_0_energy">     -3.96848749 </i>
   </energy>
  </scstep>
  <scstep>
   <time name="total">    0.49    0.50</time>
   <energy>
    <i name="alphaZ">    131.13230232 </i>
    <i name="ewald">  -2699.00129049 </i>
    <i name="hartreedc">  -1509.05935128 </i>
    <i name="XCdc">    145.87355606 </i>
    <i name="pawpsdc">   4746.36796906 </i>
    <i name="pawaedc">  -5623.20081930 </i>
    <i name="eentropy">     -0.00000000 </i>
    <i name="bandstr">   -388.54596865 </i>
    <i name="atom">   5192.46507749 </i>
    <i name="e_fr_energy">     -3.96852477 </i>
    <i name="e_wo_entrp">     -3.96852477 </i>
    <i name="e_0_energy">     -3.96852477 </i>
   </energy>
  </scstep>
  <structure>
   <crystal>
    <varray name="basis" >
     <v>       0.00000000       2.81650000       2.81650000 </v>
     <v>       2.81650000       0.00000000       2.81650000 </v>
     <v>       2.81650000       2.81650000       0.00000000 </v>
    </varray>
    <i name="volume">     44.68474278 </i>
    <varray name="rec_basis" >
     <v>      -0.17752530       0.17752530       0.17752530 </v>
     <v>       0.17752530      -0.17752530       0.17752530 </v>
     <v>       0.17752530       0.17752530      -0.17752530 </v>
    </varray>
   </crystal>
   <varray name="positions" >
    <v>       0.00000000       0.00000000       0.00000000 </v>
    <v>       0.25000000       0.25000000       0.25000000 </v>
   </varray>
  </structure>
  <varray name="forces" >
   <v>       0.00000000       0.00000000       0.00000000 </v>
   <v>      -0.00000000      -0.00000000      -0.00000000 </v>
  </varray>
  <varray name="stress" >
   <v>     791.09236012       0.00000000       0.00000000 </v>
   <v>       0.00000000     791.09236012      -0.00000000 </v>
   <v>       0.00000000       0.00000000     791.09236012 </v>
  </varray>
  <energy>
   <i name="e_fr_energy">     -3.96852477 </i>
   <i name="e_wo_entrp">     -3.96852477 </i>
   <i name="e_0_energy">     -0.00000000 </i>
  </energy>
  <time name="totalsc">    6.46    6.65</time>
  <eigenvalues>
   <array>
    <dimension dim="1">band</dimension>
    <dimension dim="2">kpoint</dimension>
    <dimension dim="3">spin</dimension>
    <field>eigene</field>
    <field>occ</field>
    <set>
     <set comment="spin 1">
      <set comment="kpoint 1">
       <r>  -19.6736    1.0000 </r>
       <r>  -19.6736    1.0000 </r>
       <r>  -19.6298    1.0000 </r>
       <r>  -19.5682    1.0000 </r>
       <r>  -19.5682    1.0000 </r>
       <r>  -19.4285    1.0000 </r>
       <r>  -19.4285    1.0000 </r>
       <r>  -19.4147    1.0000 </r>
       <r>  -19.3517    1.0000 </r>
       <r>  -19.3517    1.0000 </r>
       <r>   -5.6001    1.0000 </r>
       <r>   -2.6450    1.0000 </r>
       <r>    3.3550    1.0000 </r>
       <r>    3.3550    1.0000 </r>
       <r>    5.3228    0.0000 </r>
       <r>    8.7164    0.0000 </r>
       <r>    8.7164    0.0000 </r>
       <r>   12.2197    0.0000 </r>
       <r>   15.6120    0.0000 </r>
       <r>   16.1107    0.0000 </r>
       <r>   16.3043    0.0000 </r>
       <r>   16.3043    0.0000 </r>
       <r>   17.6978    0.0000 </r>
       <r>   17.6978    0.0000 </r>
       <r>   23.9620    0.0000 </r>
       <r>   26.2852    0.0000 </r>
       <r>   26.8448    0.0000 </r>
       <r>   26.8449    0.0000 </r>
       <r>   27.6389    0.0000 </r>
       <r>   27.6390    0.0000 </r>
       <r>   30.7278    0.0000 </r>
       <r>   31.2686    0.0000 </r>
       <r>   32.6073    0.0000 </r>
       <r>   32.6084    0.0000 </r>
       <r>   32.7797    0.0000 </r>
       <r>   34.0483    0.0000 </r>
       <r>   34.0486    0.0000 </r>
       <r>   37.6640    0.0000 </r>
       <r>   37.7289    0.0000 </r>
       <r>   37.8055    0.0000 </r>
       <r>   37.8274    0.0000 </r>
       <r>   38.4900    0.0000 </r>
       <r>   38.5902    0.0000 </r>
       <r>   40.0695    0.0000 </r>
       <r>   43.9859    0.0000 </r>
       <r>   46.2654    0.0000 </r>
       <r>   46.5395    0.0000 </r>
       <r>   49.0152    0.0000 </r>
       <r>   51.1184    0.0000 </r>
       <r>   52.4050    0.0000 </r>
       <r>   52.5034    0.0000 </r>
       <r>   52.7569    0.0000 </r>
       <r>   56.7378    0.0000 </r>
       <r>   60.6719    0.0000 </r>
      </set>
      <set comment="kpoint 2">
       <r>  -19.6735    1.0000 </r>
       <r>  -19.6735    1.0000 </r>
       <r>  -19.6298    1.0000 </r>
       <r>  -19.5681    1.0000 </r>
       <r>  -19.5681    1.0000 </r>
       <r>  -19.4285    1.0000 </r>
       <r>  -19.4285    1.0000 </r>
       <r>  -19.4147    1.0000 </r>
       <r>  -19.3516    1.0000 </r>
       <r>  -19.3516    1.0000 </r>
       <r>   -5.6050    1.0000 </r>
       <r>   -2.6375    1.0000 </r>
       <r>    3.3560    1.0000 </r>
       <r>    3.3560    1.0000 </r>
       <r>    5.3236    0.0000 </r>
       <r>    8.7167    0.0000 </r>
       <r>    8.7167    0.0000 </r>
       <r>   12.2208    0.0000 </r>
       <r>   15.5366    0.0000 </r>
       <r>   16.1842    0.0000 </r>
       <r>   16.2737    0.0000 </r>
       <r>   16.2737    0.0000 </r>
       <r>   17.7326    0.0000 </r>
       <r>   17.7326    0.0000 </r>
       <r>   23.9204    0.0000 </r>
       <r>   26.3316    0.0000 </r>
       <r>   26.7335    0.0000 </r>
       <r>   26.7336    0.0000 </r>
       <r>   27.7530    0.0000 </r>
       <r>   27.7533    0.0000 </r>
       <r>   30.5448    0.0000 </r>
       <r>   31.4462    0.0000 </r>
       <r>   32.6076    0.0000 </r>
       <r>   32.6118    0.0000 </r>
       <r>   32.7798    0.0000 </r>
       <r>   34.0472    0.0000 </r>
       <r>   34.0537    0.0000 </r>
       <r>   37.7306    0.0000 </r>
       <r>   37.7403    0.0000 </r>
       <r>   37.9335    0.0000 </r>
       <r>   38.1108    0.0000 </r>
       <r>   38.6188    0.0000 </r>
       <r>   38.6432    0.0000 </r>
       <r>   40.2635    0.0000 </r>
       <r>   44.3226    0.0000 </r>
       <r>   45.9719    0.0000 </r>
       <r>   46.4555    0.0000 </r>
       <r>   49.4888    0.0000 </r>
       <r>   52.2628    0.0000 </r>
       <r>   52.2689    0.0000 </r>
       <r>   54.3371    0.0000 </r>
       <r>   57.6807    0.0000 </r>
       <r>   59.3666    0.0000 </r>
       <r>   61.0344    0.0000 </r>
      </set>
      <set comment="kpoint 3">
       <r>  -19.6735    1.0000 </r>
       <r>  -19.6735    1.0000 </r>
       <r>  -19.6299    1.0000 </r>
       <r>  -19.5682    1.0000 </r>
       <r>  -19.5682    1.0000 </r>
       <r>  -19.4285    1.0000 </r>
       <r>  -19.4285    1.0000 </r>
       <r>  -19.4146    1.0000 </r>
       <r>  -19.3516    1.0000 </r>
       <r>  -19.3516    1.0000 </r>
       <r>   -5.6196    1.0000 </r>
       <r>   -2.6150    1.0000 </r>
       <r>    3.3587    1.0000 </r>
       <r>    3.3587    1.0000 </r>
       <r>    5.3260    0.0000 </r>
       <r>    8.7175    0.0000 </r>
       <r>    8.7175    0.0000 </r>
       <r>   12.2240    0.0000 </r>
       <r>   15.3757    0.0000 </r>
       <r>   16.1898    0.0000 </r>
       <r>   16.1898    0.0000 </r>
       <r>   16.3391    0.0000 </r>
       <r>   17.8292    0.0000 </r>
       <r>   17.8292    0.0000 </r>
       <r>   23.8056    0.0000 </r>
       <r>   26.4625    0.0000 </r>
       <r>   26.4951    0.0000 </r>
       <r>   26.4951    0.0000 </r>
       <r>   28.0003    0.0000 </r>
       <r>   28.0009    0.0000 </r>
       <r>   30.2557    0.0000 </r>
       <r>   31.7446    0.0000 </r>
       <r>   32.6098    0.0000 </r>
       <r>   32.6349    0.0000 </r>
       <r>   32.8002    0.0000 </r>
       <r>   34.0558    0.0000 </r>
       <r>   34.1817    0.0000 </r>
       <r>   37.7355    0.0000 </r>
       <r>   37.7638    0.0000 </r>
       <r>   38.1449    0.0000 </r>
       <r>   38.2009    0.0000 </r>
       <r>   38.9073    0.0000 </r>
       <r>   40.8770    0.0000 </r>
       <r>   44.3675    0.0000 </r>
       <r>   44.5280    0.0000 </r>
       <r>   45.4678    0.0000 </r>
       <r>   47.3108    0.0000 </r>
       <r>   51.6733    0.0000 </r>
       <r>   51.8188    0.0000 </r>
       <r>   52.0967    0.0000 </r>
       <r>   54.4890    0.0000 </r>
       <r>   58.8057    0.0000 </r>
       <r>   61.7959    0.0000 </r>
       <r>   63.0086    0.0000 </r>
      </set>
      <set comment="kpoint 4">
       <r>  -19.6735    1.0000 </r>
       <r>  -19.6735    1.0000 </r>
       <r>  -19.6300    1.0000 </r>
       <r>  -19.5683    1.0000 </r>
       <r>  -19.5683    1.0000 </r>
       <r>  -19.4285    1.0000 </r>
       <r>  -19.4285    1.0000 </r>
       <r>  -19.4145    1.0000 </r>
       <r>  -19.3517    1.0000 </r>
       <r>  -19.3517    1.0000 </r>
       <r>   -5.6435    1.0000 </r>
       <r>   -2.5781    1.0000 </r>
       <r>    3.3634    1.0000 </r>
       <r>    3.3634    1.0000 </r>
       <r>    5.3301    0.0000 </r>
       <r>    8.7188    0.0000 </r>
       <r>    8.7188    0.0000 </r>
       <r>   12.2293    0.0000 </r>
       <r>   15.1878    0.0000 </r>
       <r>   16.0690    0.0000 </r>
       <r>   16.0690    0.0000 </r>
       <r>   16.5166    0.0000 </r>
       <r>   17.9712    0.0000 </r>
       <r>   17.9712    0.0000 </r>
       <r>   23.6386    0.0000 </r>
       <r>   26.2173    0.0000 </r>
       <r>   26.2174    0.0000 </r>
       <r>   26.6562    0.0000 </r>
       <r>   28.2931    0.0000 </r>
       <r>   28.3038    0.0000 </r>
       <r>   29.9472    0.0000 </r>
       <r>   32.1028    0.0000 </r>
       <r>   32.5850    0.0000 </r>
       <r>   32.6343    0.0000 </r>
       <r>   32.7993    0.0000 </r>
       <r>   34.0377    0.0000 </r>
       <r>   34.1744    0.0000 </r>
       <r>   37.7796    0.0000 </r>
       <r>   37.7927    0.0000 </r>
       <r>   38.2286    0.0000 </r>
       <r>   38.2443    0.0000 </r>
       <r>   39.1899    0.0000 </r>
       <r>   41.8603    0.0000 </r>
       <r>   44.6805    0.0000 </r>
       <r>   45.2414    0.0000 </r>
       <r>   45.6877    0.0000 </r>
       <r>   47.3145    0.0000 </r>
       <r>   51.3731    0.0000 </r>
       <r>   52.4550    0.0000 </r>
       <r>   53.4494    0.0000 </r>
       <r>   54.6888    0.0000 </r>
       <r>   59.3487    0.0000 </r>
       <r>   62.1850    0.0000 </r>
       <r>   65.4653    0.0000 </r>
      </set>
      <set comment="kpoint 5">
       <r>  -19.6734    1.0000 </r>
       <r>  -19.6734    1.0000 </r>
       <r>  -19.6301    1.0000 </r>
       <r>  -19.5684    1.0000 </r>
       <r>  -19.5684    1.0000 </r>
       <r>  -19.4284    1.0000 </r>
       <r>  -19.4284    1.0000 </r>
       <r>  -19.4143    1.0000 </r>
       <r>  -19.3518    1.0000 </r>
       <r>  -19.3518    1.0000 </r>
       <r>   -5.6759    1.0000 </r>
       <r>   -2.5274    1.0000 </r>
       <r>    3.3699    1.0000 </r>
       <r>    3.3699    1.0000 </r>
       <r>    5.3358    0.0000 </r>
       <r>    8.7205    0.0000 </r>
       <r>    8.7205    0.0000 </r>
       <r>   12.2364    0.0000 </r>
       <r>   14.9906    0.0000 </r>
       <r>   15.9263    0.0000 </r>
       <r>   15.9263    0.0000 </r>
       <r>   16.6980    0.0000 </r>
       <r>   18.1437    0.0000 </r>
       <r>   18.1437    0.0000 </r>
       <r>   23.4407    0.0000 </r>
       <r>   25.9269    0.0000 </r>
       <r>   25.9269    0.0000 </r>
       <r>   26.8882    0.0000 </r>
       <r>   28.6043    0.0000 </r>
       <r>   28.6043    0.0000 </r>
       <r>   29.6398    0.0000 </r>
       <r>   32.4253    0.0000 </r>
       <r>   32.5535    0.0000 </r>
       <r>   32.5535    0.0000 </r>
       <r>   32.7438    0.0000 </r>
       <r>   34.0004    0.0000 </r>
       <r>   34.0035    0.0000 </r>
       <r>   37.7465    0.0000 </r>
       <r>   37.8586    0.0000 </r>
       <r>   37.9208    0.0000 </r>
       <r>   38.1177    0.0000 </r>
       <r>   38.4661    0.0000 </r>
       <r>   38.9436    0.0000 </r>
       <r>   40.2424    0.0000 </r>
       <r>   44.1939    0.0000 </r>
       <r>   45.8845    0.0000 </r>
       <r>   46.6647    0.0000 </r>
       <r>   47.6436    0.0000 </r>
       <r>   50.5450    0.0000 </r>
       <r>   50.8931    0.0000 </r>
       <r>   51.3323    0.0000 </r>
       <r>   53.0617    0.0000 </r>
       <r>   56.3876    0.0000 </r>
       <r>   60.4080    0.0000 </r>
      </set>
      <set comment="kpoint 6">
       <r>  -19.6734    1.0000 </r>
       <r>  -19.6734    1.0000 </r>
       <r>  -19.6303    1.0000 </r>
       <r>  -19.5685    1.0000 </r>
       <r>  -19.5685    1.0000 </r>
       <r>  -19.4283    1.0000 </r>
       <r>  -19.4283    1.0000 </r>
       <r>  -19.4141    1.0000 </r>
       <r>  -19.3518    1.0000 </r>
       <r>  -19.3518    1.0000 </r>
       <r>   -5.7160    1.0000 </r>
       <r>   -2.4638    1.0000 </r>
       <r>    3.3782    1.0000 </r>
       <r>    3.3782    1.0000 </r>
       <r>    5.3431    0.0000 </r>
       <r>    8.7227    0.0000 </r>
       <r>    8.7227    0.0000 </r>
       <r>   12.2451    0.0000 </r>
       <r>   14.7901    0.0000 </r>
       <r>   15.7715    0.0000 </r>
       <r>   15.7715    0.0000 </r>
       <r>   16.8762    0.0000 </r>
       <r>   18.3369    0.0000 </r>
       <r>   18.3369    0.0000 </r>
       <r>   23.2280    0.0000 </r>
       <r>   25.6325    0.0000 </r>
       <r>   25.6325    0.0000 </r>
       <r>   27.1387    0.0000 </r>
       <r>   28.9254    0.0000 </r>
       <r>   28.9255    0.0000 </r>
       <r>   29.3466    0.0000 </r>
       <r>   32.5241    0.0000 </r>
       <r>   32.5308    0.0000 </r>
       <r>   32.7270    0.0000 </r>
       <r>   32.7728    0.0000 </r>
       <r>   33.9735    0.0000 </r>
       <r>   33.9870    0.0000 </r>
       <r>   37.7995    0.0000 </r>
       <r>   37.8855    0.0000 </r>
       <r>   37.9615    0.0000 </r>
       <r>   38.2789    0.0000 </r>
       <r>   38.3972    0.0000 </r>
       <r>   39.2355    0.0000 </r>
       <r>   40.8871    0.0000 </r>
       <r>   44.2145    0.0000 </r>
       <r>   45.7918    0.0000 </r>
       <r>   46.3035    0.0000 </r>
       <r>   48.0597    0.0000 </r>
       <r>   50.4336    0.0000 </r>
       <r>   50.5802    0.0000 </r>
       <r>   52.7616    0.0000 </r>
       <r>   54.8509    0.0000 </r>
       <r>   58.8820    0.0000 </r>
       <r>   60.6696    0.0000 </r>
      </set>
      <set comment="kpoint 7">
       <r>  -19.6733    1.0000 </r>
       <r>  -19.6733    1.0000 </r>
       <r>  -19.6305    1.0000 </r>
       <r>  -19.5687    1.0000 </r>
       <r>  -19.5687    1.0000 </r>
       <r>  -19.4282    1.0000 </r>
       <r>  -19.4282    1.0000 </r>
       <r>  -19.4139    1.0000 </r>
       <r>  -19.3519    1.0000 </r>
       <r>  -19.3519    1.0000 </r>
       <r>   -5.7628    1.0000 </r>
       <r>   -2.3882    1.0000 </r>
       <r>    3.3884    1.0000 </r>
       <r>    3.3884    1.0000 </r>
       <r>    5.3520    0.0000 </r>
       <r>    8.7250    0.0000 </r>
       <r>    8.7250    0.0000 </r>
       <r>   12.2552    0.0000 </r>
       <r>   14.5890    0.0000 </r>
       <r>   15.6110    0.0000 </r>
       <r>   15.6110    0.0000 </r>
       <r>   17.0468    0.0000 </r>
       <r>   18.5446    0.0000 </r>
       <r>   18.5446    0.0000 </r>
       <r>   23.0124    0.0000 </r>
       <r>   25.3376    0.0000 </r>
       <r>   25.3376    0.0000 </r>
       <r>   27.3831    0.0000 </r>
       <r>   29.0838    0.0000 </r>
       <r>   29.2532    0.0000 </r>
       <r>   29.2547    0.0000 </r>
       <r>   32.4924    0.0000 </r>
       <r>   32.5417    0.0000 </r>
       <r>   32.7028    0.0000 </r>
       <r>   33.1316    0.0000 </r>
       <r>   33.9470    0.0000 </r>
       <r>   33.9540    0.0000 </r>
       <r>   37.8986    0.0000 </r>
       <r>   37.9637    0.0000 </r>
       <r>   38.2172    0.0000 </r>
       <r>   38.2628    0.0000 </r>
       <r>   38.7305    0.0000 </r>
       <r>   39.9561    0.0000 </r>
       <r>   42.9293    0.0000 </r>
       <r>   44.9183    0.0000 </r>
       <r>   45.7499    0.0000 </r>
       <r>   48.3591    0.0000 </r>
       <r>   50.0084    0.0000 </r>
       <r>   50.3174    0.0000 </r>
       <r>   52.0207    0.0000 </r>
       <r>   55.2215    0.0000 </r>
       <r>   57.2901    0.0000 </r>
       <r>   58.4555    0.0000 </r>
       <r>   60.2862    0.0000 </r>
      </set>
      <set comment="kpoint 8">
       <r>  -19.6732    1.0000 </r>
       <r>  -19.6732    1.0000 </r>
       <r>  -19.6307    1.0000 </r>
       <r>  -19.5690    1.0000 </r>
       <r>  -19.5690    1.0000 </r>
       <r>  -19.4281    1.0000 </r>
       <r>  -19.4281    1.0000 </r>
       <r>  -19.4136    1.0000 </r>
       <r>  -19.3521    1.0000 </r>
       <r>  -19.3521    1.0000 </r>
       <r>   -5.8154    1.0000 </r>
       <r>   -2.3018    1.0000 </r>
       <r>    3.4004    1.0000 </r>
       <r>    3.4004    1.0000 </r>
       <r>    5.3626    0.0000 </r>
       <r>    8.7275    0.0000 </r>
       <r>    8.7275    0.0000 </r>
       <r>   12.2660    0.0000 </r>
       <r>   14.3891    0.0000 </r>
       <r>   15.4485    0.0000 </r>
       <r>   15.4485    0.0000 </r>
       <r>   17.2061    0.0000 </r>
       <r>   18.7629    0.0000 </r>
       <r>   18.7629    0.0000 </r>
       <r>   22.8025    0.0000 </r>
       <r>   25.0436    0.0000 </r>
       <r>   25.0437    0.0000 </r>
       <r>   27.5859    0.0000 </r>
       <r>   28.8938    0.0000 </r>
       <r>   29.5933    0.0000 </r>
       <r>   29.6232    0.0000 </r>
       <r>   32.4671    0.0000 </r>
       <r>   32.4788    0.0000 </r>
       <r>   32.7204    0.0000 </r>
       <r>   33.8671    0.0000 </r>
       <r>   33.9424    0.0000 </r>
       <r>   33.9547    0.0000 </r>
       <r>   37.9875    0.0000 </r>
       <r>   38.2024    0.0000 </r>
       <r>   38.3997    0.0000 </r>
       <r>   38.9731    0.0000 </r>
       <r>   39.8176    0.0000 </r>
       <r>   41.9953    0.0000 </r>
       <r>   43.8644    0.0000 </r>
       <r>   44.7882    0.0000 </r>
       <r>   46.3376    0.0000 </r>
       <r>   49.0135    0.0000 </r>
       <r>   49.3607    0.0000 </r>
       <r>   49.5093    0.0000 </r>
       <r>   52.3798    0.0000 </r>
       <r>   53.0288    0.0000 </r>
       <r>   56.8351    0.0000 </r>
       <r>   59.6271    0.0000 </r>
       <r>   60.8463    0.0000 </r>
      </set>
      <set comment="kpoint 9">
       <r>  -19.6730    1.0000 </r>
       <r>  -19.6730    1.0000 </r>
       <r>  -19.6310    1.0000 </r>
       <r>  -19.5693    1.0000 </r>
       <r>  -19.5693    1.0000 </r>
       <r>  -19.4279    1.0000 </r>
       <r>  -19.4279    1.0000 </r>
       <r>  -19.4132    1.0000 </r>
       <r>  -19.3522    1.0000 </r>
       <r>  -19.3522    1.0000 </r>
       <r>   -5.8727    1.0000 </r>
       <r>   -2.2053    1.0000 </r>
       <r>    3.4142    1.0000 </r>
       <r>    3.4142    1.0000 </r>
       <r>    5.3747    0.0000 </r>
       <r>    8.7300    0.0000 </r>
       <r>    8.7300    0.0000 </r>
       <r>   12.2769    0.0000 </r>
       <r>   14.1916    0.0000 </r>
       <r>   15.2867    0.0000 </r>
       <r>   15.2867    0.0000 </r>
       <r>   17.3501    0.0000 </r>
       <r>   18.9897    0.0000 </r>
       <r>   18.9897    0.0000 </r>
       <r>   22.6057    0.0000 </r>
       <r>   24.7516    0.0000 </r>
       <r>   24.7516    0.0000 </r>
       <r>   27.6511    0.0000 </r>
       <r>   28.8326    0.0000 </r>
       <r>   29.9230    0.0000 </r>
       <r>   29.9625    0.0000 </r>
       <r>   32.4128    0.0000 </r>
       <r>   32.4186    0.0000 </r>
       <r>   32.6501    0.0000 </r>
       <r>   33.8740    0.0000 </r>
       <r>   33.8814    0.0000 </r>
       <r>   34.3737    0.0000 </r>
       <r>   38.0435    0.0000 </r>
       <r>   38.2148    0.0000 </r>
       <r>   38.4013    0.0000 </r>
       <r>   38.5996    0.0000 </r>
       <r>   39.6358    0.0000 </r>
       <r>   40.7779    0.0000 </r>
       <r>   42.0044    0.0000 </r>
       <r>   44.7350    0.0000 </r>
       <r>   45.9568    0.0000 </r>
       <r>   47.3461    0.0000 </r>
       <r>   49.0598    0.0000 </r>
       <r>   49.0635    0.0000 </r>
       <r>   49.5111    0.0000 </r>
       <r>   52.8777    0.0000 </r>
       <r>   55.9304    0.0000 </r>
       <r>   58.7615    0.0000 </r>
       <r>   61.0792    0.0000 </r>
      </set>
      <set comment="kpoint 10">
       <r>  -19.6729    1.0000 </r>
       <r>  -19.6729    1.0000 </r>
       <r>  -19.6313    1.0000 </r>
       <r>  -19.5696    1.0000 </r>
       <r>  -19.5696    1.0000 </r>
       <r>  -19.4278    1.0000 </r>
       <r>  -19.4278    1.0000 </r>
       <r>  -19.4129    1.0000 </r>
       <r>  -19.3524    1.0000 </r>
       <r>  -19.3524    1.0000 </r>
       <r>   -5.9338    1.0000 </r>
       <r>   -2.0999    1.0000 </r>
       <r>    3.4298    1.0000 </r>
       <r>    3.4298    1.0000 </r>
       <r>    5.3884    0.0000 </r>
       <r>    8.7323    0.0000 </r>
       <r>    8.7323    0.0000 </r>
       <r>   12.2867    0.0000 </r>
       <r>   13.9982    0.0000 </r>
       <r>   15.1271    0.0000 </r>
       <r>   15.1271    0.0000 </r>
       <r>   17.4746    0.0000 </r>
       <r>   19.2231    0.0000 </r>
       <r>   19.2231    0.0000 </r>
       <r>   22.4286    0.0000 </r>
       <r>   24.4619    0.0000 </r>
       <r>   24.4619    0.0000 </r>
       <r>   27.5528    0.0000 </r>
       <r>   28.9575    0.0000 </r>
       <r>   30.2630    0.0000 </r>
       <r>   30.2630    0.0000 </r>
       <r>   32.3593    0.0000 </r>
       <r>   32.3596    0.0000 </r>
       <r>   32.6129    0.0000 </r>
       <r>   33.8285    0.0000 </r>
       <r>   33.8363    0.0000 </r>
       <r>   34.2016    0.0000 </r>
       <r>   38.0758    0.0000 </r>
       <r>   38.1012    0.0000 </r>
       <r>   38.3264    0.0000 </r>
       <r>   38.5694    0.0000 </r>
       <r>   38.7061    0.0000 </r>
       <r>   40.2032    0.0000 </r>
       <r>   41.3912    0.0000 </r>
       <r>   44.5989    0.0000 </r>
       <r>   46.4748    0.0000 </r>
       <r>   46.6447    0.0000 </r>
       <r>   48.3486    0.0000 </r>
       <r>   48.7226    0.0000 </r>
       <r>   51.7217    0.0000 </r>
       <r>   53.4234    0.0000 </r>
       <r>   54.5946    0.0000 </r>
       <r>   56.7925    0.0000 </r>
       <r>   59.2394    0.0000 </r>
      </set>
      <set comment="kpoint 11">
       <r>  -19.6728    1.0000 </r>
       <r>  -19.6728    1.0000 </r>
       <r>  -19.6317    1.0000 </r>
       <r>  -19.5700    1.0000 </r>
       <r>  -19.5700    1.0000 </r>
       <r>  -19.4276    1.0000 </r>
       <r>  -19.4276    1.0000 </r>
       <r>  -19.4125    1.0000 </r>
       <r>  -19.3526    1.0000 </r>
       <r>  -19.3526    1.0000 </r>
       <r>   -5.9980    1.0000 </r>
       <r>   -1.9863    1.0000 </r>
       <r>    3.4473    1.0000 </r>
       <r>    3.4473    1.0000 </r>
       <r>    5.4037    0.0000 </r>
       <r>    8.7341    0.0000 </r>
       <r>    8.7341    0.0000 </r>
       <r>   12.2939    0.0000 </r>
       <r>   13.8108    0.0000 </r>
       <r>   14.9710    0.0000 </r>
       <r>   14.9710    0.0000 </r>
       <r>   17.5748    0.0000 </r>
       <r>   19.4623    0.0000 </r>
       <r>   19.4623    0.0000 </r>
       <r>   22.2775    0.0000 </r>
       <r>   24.1750    0.0000 </r>
       <r>   24.1750    0.0000 </r>
       <r>   27.3438    0.0000 </r>
       <r>   29.2058    0.0000 </r>
       <r>   30.6066    0.0000 </r>
       <r>   30.6068    0.0000 </r>
       <r>   32.3077    0.0000 </r>
       <r>   32.3419    0.0000 </r>
       <r>   32.5764    0.0000 </r>
       <r>   33.7839    0.0000 </r>
       <r>   33.8087    0.0000 </r>
       <r>   34.5606    0.0000 </r>
       <r>   38.1101    0.0000 </r>
       <r>   38.1757    0.0000 </r>
       <r>   38.4415    0.0000 </r>
       <r>   38.7693    0.0000 </r>
       <r>   39.0005    0.0000 </r>
       <r>   41.4955    0.0000 </r>
       <r>   42.9049    0.0000 </r>
       <r>   44.4760    0.0000 </r>
       <r>   45.8143    0.0000 </r>
       <r>   46.6529    0.0000 </r>
       <r>   47.9646    0.0000 </r>
       <r>   48.3419    0.0000 </r>
       <r>   51.4425    0.0000 </r>
       <r>   53.5691    0.0000 </r>
       <r>   54.7097    0.0000 </r>
       <r>   56.6072    0.0000 </r>
       <r>   59.4528    0.0000 </r>
      </set>
      <set comment="kpoint 12">
       <r>  -19.6725    1.0000 </r>
       <r>  -19.6725    1.0000 </r>
       <r>  -19.6320    1.0000 </r>
       <r>  -19.5704    1.0000 </r>
       <r>  -19.5704    1.0000 </r>
       <r>  -19.4272    1.0000 </r>
       <r>  -19.4272    1.0000 </r>
       <r>  -19.4121    1.0000 </r>
       <r>  -19.3528    1.0000 </r>
       <r>  -19.3528    1.0000 </r>
       <r>   -6.0645    1.0000 </r>
       <r>   -1.8652    1.0000 </r>
       <r>    3.4665    1.0000 </r>
       <r>    3.4665    1.0000 </r>
       <r>    5.4205    0.0000 </r>
       <r>    8.7354    0.0000 </r>
       <r>    8.7354    0.0000 </r>
       <r>   12.2957    0.0000 </r>
       <r>   13.6320    0.0000 </r>
       <r>   14.8193    0.0000 </r>
       <r>   14.8193    0.0000 </r>
       <r>   17.6462    0.0000 </r>
       <r>   19.7062    0.0000 </r>
       <r>   19.7062    0.0000 </r>
       <r>   22.1582    0.0000 </r>
       <r>   23.8912    0.0000 </r>
       <r>   23.8912    0.0000 </r>
       <r>   27.0866    0.0000 </r>
       <r>   29.5391    0.0000 </r>
       <r>   30.9567    0.0000 </r>
       <r>   31.0970    0.0000 </r>
       <r>   32.2682    0.0000 </r>
       <r>   32.3593    0.0000 </r>
       <r>   32.6223    0.0000 </r>
       <r>   33.7585    0.0000 </r>
       <r>   33.8651    0.0000 </r>
       <r>   36.0097    0.0000 </r>
       <r>   38.2944    0.0000 </r>
       <r>   38.3753    0.0000 </r>
       <r>   38.7134    0.0000 </r>
       <r>   39.3699    0.0000 </r>
       <r>   40.5995    0.0000 </r>
       <r>   42.2300    0.0000 </r>
       <r>   44.8583    0.0000 </r>
       <r>   45.9793    0.0000 </r>
       <r>   46.0001    0.0000 </r>
       <r>   47.7691    0.0000 </r>
       <r>   48.3117    0.0000 </r>
       <r>   49.3681    0.0000 </r>
       <r>   51.4833    0.0000 </r>
       <r>   52.2681    0.0000 </r>
       <r>   57.3828    0.0000 </r>
       <r>   58.0581    0.0000 </r>
       <r>   60.9447    0.0000 </r>
      </set>
      <set comment="kpoint 13">
       <r>  -19.6723    1.0000 </r>
       <r>  -19.6723    1.0000 </r>
       <r>  -19.6327    1.0000 </r>
       <r>  -19.5709    1.0000 </r>
       <r>  -19.5709    1.0000 </r>
       <r>  -19.4269    1.0000 </r>
       <r>  -19.4269    1.0000 </r>
       <r>  -19.4116    1.0000 </r>
       <r>  -19.3530    1.0000 </r>
       <r>  -19.3530    1.0000 </r>
       <r>   -6.1326    1.0000 </r>
       <r>   -1.7374    1.0000 </r>
       <r>    3.4875    1.0000 </r>
       <r>    3.4875    1.0000 </r>
       <r>    5.4389    0.0000 </r>
       <r>    8.7357    0.0000 </r>
       <r>    8.7357    0.0000 </r>
       <r>   12.2885    0.0000 </r>
       <r>   13.4657    0.0000 </r>
       <r>   14.6727    0.0000 </r>
       <r>   14.6727    0.0000 </r>
       <r>   17.6846    0.0000 </r>
       <r>   19.9542    0.0000 </r>
       <r>   19.9542    0.0000 </r>
       <r>   22.0757    0.0000 </r>
       <r>   23.6110    0.0000 </r>
       <r>   23.6110    0.0000 </r>
       <r>   26.8081    0.0000 </r>
       <r>   29.8492    0.0000 </r>
       <r>   31.3006    0.0000 </r>
       <r>   31.3006    0.0000 </r>
       <r>   32.1967    0.0000 </r>
       <r>   32.1986    0.0000 </r>
       <r>   32.4880    0.0000 </r>
       <r>   33.6811    0.0000 </r>
       <r>   33.6882    0.0000 </r>
       <r>   35.2526    0.0000 </r>
       <r>   38.0274    0.0000 </r>
       <r>   38.3893    0.0000 </r>
       <r>   38.6728    0.0000 </r>
       <r>   38.9562    0.0000 </r>
       <r>   39.4048    0.0000 </r>
       <r>   41.0573    0.0000 </r>
       <r>   42.9343    0.0000 </r>
       <r>   44.7400    0.0000 </r>
       <r>   46.6923    0.0000 </r>
       <r>   46.8477    0.0000 </r>
       <r>   47.5315    0.0000 </r>
       <r>   48.1385    0.0000 </r>
       <r>   51.7045    0.0000 </r>
       <r>   53.5652    0.0000 </r>
       <r>   56.1198    0.0000 </r>
       <r>   58.0703    0.0000 </r>
       <r>   58.2066    0.0000 </r>
      </set>
      <set comment="kpoint 14">
       <r>  -19.6721    1.0000 </r>
       <r>  -19.6721    1.0000 </r>
       <r>  -19.6331    1.0000 </r>
       <r>  -19.5714    1.0000 </r>
       <r>  -19.5714    1.0000 </r>
       <r>  -19.4266    1.0000 </r>
       <r>  -19.4266    1.0000 </r>
       <r>  -19.4112    1.0000 </r>
       <r>  -19.3533    1.0000 </r>
       <r>  -19.3533    1.0000 </r>
       <r>   -6.2018    1.0000 </r>
       <r>   -1.6035    1.0000 </r>
       <r>    3.5103    1.0000 </r>
       <r>    3.5103    1.0000 </r>
       <r>    5.4588    0.0000 </r>
       <r>    8.7349    0.0000 </r>
       <r>    8.7349    0.0000 </r>
       <r>   12.2667    0.0000 </r>
       <r>   13.3175    0.0000 </r>
       <r>   14.5320    0.0000 </r>
       <r>   14.5320    0.0000 </r>
       <r>   17.6871    0.0000 </r>
       <r>   20.2055    0.0000 </r>
       <r>   20.2055    0.0000 </r>
       <r>   22.0336    0.0000 </r>
       <r>   23.3348    0.0000 </r>
       <r>   23.3348    0.0000 </r>
       <r>   26.5220    0.0000 </r>
       <r>   30.2018    0.0000 </r>
       <r>   31.6468    0.0000 </r>
       <r>   31.6468    0.0000 </r>
       <r>   32.1436    0.0000 </r>
       <r>   32.1436    0.0000 </r>
       <r>   32.4437    0.0000 </r>
       <r>   33.6289    0.0000 </r>
       <r>   33.6289    0.0000 </r>
       <r>   35.5773    0.0000 </r>
       <r>   37.9134    0.0000 </r>
       <r>   38.5033    0.0000 </r>
       <r>   38.6089    0.0000 </r>
       <r>   38.8122    0.0000 </r>
       <r>   39.0708    0.0000 </r>
       <r>   39.4589    0.0000 </r>
       <r>   40.9658    0.0000 </r>
       <r>   44.3524    0.0000 </r>
       <r>   45.4957    0.0000 </r>
       <r>   46.7168    0.0000 </r>
       <r>   46.8664    0.0000 </r>
       <r>   46.9833    0.0000 </r>
       <r>   47.5492    0.0000 </r>
       <r>   50.2259    0.0000 </r>
       <r>   53.2756    0.0000 </r>
       <r>   55.9474    0.0000 </r>
       <r>   57.8051    0.0000 </r>
      </set>
      <set comment="kpoint 15">
       <r>  -19.6718    1.0000 </r>
       <r>  -19.6718    1.0000 </r>
       <r>  -19.6335    1.0000 </r>
       <r>  -19.5720    1.0000 </r>
       <r>  -19.5720    1.0000 </r>
       <r>  -19.4263    1.0000 </r>
       <r>  -19.4263    1.0000 </r>
       <r>  -19.4107    1.0000 </r>
       <r>  -19.3536    1.0000 </r>
       <r>  -19.3536    1.0000 </r>
       <r>   -6.2716    1.0000 </r>
       <r>   -1.4638    1.0000 </r>
       <r>    3.5348    1.0000 </r>
       <r>    3.5348    1.0000 </r>
       <r>    5.4801    0.0000 </r>
       <r>    8.7326    0.0000 </r>
       <r>    8.7326    0.0000 </r>
       <r>   12.2233    0.0000 </r>
       <r>   13.1942    0.0000 </r>
       <r>   14.3976    0.0000 </r>
       <r>   14.3976    0.0000 </r>
       <r>   17.6530    0.0000 </r>
       <r>   20.4590    0.0000 </r>
       <r>   20.4590    0.0000 </r>
       <r>   22.0333    0.0000 </r>
       <r>   23.0634    0.0000 </r>
       <r>   23.0634    0.0000 </r>
       <r>   26.2333    0.0000 </r>
       <r>   30.6163    0.0000 </r>
       <r>   31.9824    0.0000 </r>
       <r>   32.1257    0.0000 </r>
       <r>   32.2073    0.0000 </r>
       <r>   32.5014    0.0000 </r>
       <r>   32.7862    0.0000 </r>
       <r>   33.6014    0.0000 </r>
       <r>   33.7873    0.0000 </r>
       <r>   37.0801    0.0000 </r>
       <r>   38.7104    0.0000 </r>
       <r>   38.7582    0.0000 </r>
       <r>   38.8831    0.0000 </r>
       <r>   39.8715    0.0000 </r>
       <r>   41.3571    0.0000 </r>
       <r>   42.9749    0.0000 </r>
       <r>   44.5040    0.0000 </r>
       <r>   45.3897    0.0000 </r>
       <r>   46.2695    0.0000 </r>
       <r>   46.5326    0.0000 </r>
       <r>   48.2389    0.0000 </r>
       <r>   48.6745    0.0000 </r>
       <r>   52.5854    0.0000 </r>
       <r>   54.6180    0.0000 </r>
       <r>   54.7170    0.0000 </r>
       <r>   58.0270    0.0000 </r>
       <r>   59.1660    0.0000 </r>
      </set>
      <set comment="kpoint 16">
       <r>  -19.6715    1.0000 </r>
       <r>  -19.6715    1.0000 </r>
       <r>  -19.6340    1.0000 </r>
       <r>  -19.5727    1.0000 </r>
       <r>  -19.5727    1.0000 </r>
       <r>  -19.4260    1.0000 </r>
       <r>  -19.4260    1.0000 </r>
       <r>  -19.4101    1.0000 </r>
       <r>  -19.3539    1.0000 </r>
       <r>  -19.3539    1.0000 </r>
       <r>   -6.3415    1.0000 </r>
       <r>   -1.3190    1.0000 </r>
       <r>    3.5610    1.0000 </r>
       <r>    3.5610    1.0000 </r>
       <r>    5.5030    0.0000 </r>
       <r>    8.7287    0.0000 </r>
       <r>    8.7287    0.0000 </r>
       <r>   12.1518    0.0000 </r>
       <r>   13.1023    0.0000 </r>
       <r>   14.2702    0.0000 </r>
       <r>   14.2702    0.0000 </r>
       <r>   17.5835    0.0000 </r>
       <r>   20.7131    0.0000 </r>
       <r>   20.7131    0.0000 </r>
       <r>   22.0740    0.0000 </r>
       <r>   22.7984    0.0000 </r>
       <r>   22.7984    0.0000 </r>
       <r>   25.9442    0.0000 </r>
       <r>   30.9718    0.0000 </r>
       <r>   32.0237    0.0000 </r>
       <r>   32.0541    0.0000 </r>
       <r>   32.4270    0.0000 </r>
       <r>   32.4975    0.0000 </r>
       <r>   32.7522    0.0000 </r>
       <r>   33.5456    0.0000 </r>
       <r>   33.7754    0.0000 </r>
       <r>   36.4916    0.0000 </r>
       <r>   38.4689    0.0000 </r>
       <r>   38.8030    0.0000 </r>
       <r>   39.2066    0.0000 </r>
       <r>   39.6027    0.0000 </r>
       <r>   41.3533    0.0000 </r>
       <r>   43.5390    0.0000 </r>
       <r>   45.0489    0.0000 </r>
       <r>   45.6399    0.0000 </r>
       <r>   46.2302    0.0000 </r>
       <r>   46.7780    0.0000 </r>
       <r>   48.3581    0.0000 </r>
       <r>   49.9070    0.0000 </r>
       <r>   52.8897    0.0000 </r>
       <r>   55.4644    0.0000 </r>
       <r>   56.7275    0.0000 </r>
       <r>   57.4856    0.0000 </r>
       <r>   59.4646    0.0000 </r>
      </set>
      <set comment="kpoint 17">
       <r>  -19.6712    1.0000 </r>
       <r>  -19.6712    1.0000 </r>
       <r>  -19.6345    1.0000 </r>
       <r>  -19.5734    1.0000 </r>
       <r>  -19.5734    1.0000 </r>
       <r>  -19.4255    1.0000 </r>
       <r>  -19.4255    1.0000 </r>
       <r>  -19.4096    1.0000 </r>
       <r>  -19.3543    1.0000 </r>
       <r>  -19.3543    1.0000 </r>
       <r>   -6.4113    1.0000 </r>
       <r>   -1.1693    1.0000 </r>
       <r>    3.5888    1.0000 </r>
       <r>    3.5888    1.0000 </r>
       <r>    5.5272    0.0000 </r>
       <r>    8.7226    0.0000 </r>
       <r>    8.7226    0.0000 </r>
       <r>   12.0502    0.0000 </r>
       <r>   13.0436    0.0000 </r>
       <r>   14.1502    0.0000 </r>
       <r>   14.1502    0.0000 </r>
       <r>   17.4820    0.0000 </r>
       <r>   20.9643    0.0000 </r>
       <r>   20.9643    0.0000 </r>
       <r>   22.1526    0.0000 </r>
       <r>   22.5431    0.0000 </r>
       <r>   22.5431    0.0000 </r>
       <r>   25.6569    0.0000 </r>
       <r>   31.3575    0.0000 </r>
       <r>   31.9697    0.0000 </r>
       <r>   31.9912    0.0000 </r>
       <r>   32.4423    0.0000 </r>
       <r>   32.7855    0.0000 </r>
       <r>   33.2980    0.0000 </r>
       <r>   33.3765    0.0000 </r>
       <r>   33.7326    0.0000 </r>
       <r>   36.6565    0.0000 </r>
       <r>   38.7419    0.0000 </r>
       <r>   38.8452    0.0000 </r>
       <r>   39.3498    0.0000 </r>
       <r>   39.7320    0.0000 </r>
       <r>   41.6259    0.0000 </r>
       <r>   43.6914    0.0000 </r>
       <r>   45.0393    0.0000 </r>
       <r>   45.4629    0.0000 </r>
       <r>   46.2020    0.0000 </r>
       <r>   46.5489    0.0000 </r>
       <r>   48.2856    0.0000 </r>
       <r>   49.9584    0.0000 </r>
       <r>   52.7947    0.0000 </r>
       <r>   55.2202    0.0000 </r>
       <r>   56.5901    0.0000 </r>
       <r>   57.1633    0.0000 </r>
       <r>   59.2456    0.0000 </r>
      </set>
      <set comment="kpoint 18">
       <r>  -19.6709    1.0000 </r>
       <r>  -19.6709    1.0000 </r>
       <r>  -19.6350    1.0000 </r>
       <r>  -19.5742    1.0000 </r>
       <r>  -19.5742    1.0000 </r>
       <r>  -19.4251    1.0000 </r>
       <r>  -19.4251    1.0000 </r>
       <r>  -19.4090    1.0000 </r>
       <r>  -19.3546    1.0000 </r>
       <r>  -19.3546    1.0000 </r>
       <r>   -6.4805    1.0000 </r>
       <r>   -1.0152    1.0000 </r>
       <r>    3.6184    1.0000 </r>
       <r>    3.6184    1.0000 </r>
       <r>    5.5528    0.0000 </r>
       <r>    8.7142    0.0000 </r>
       <r>    8.7142    0.0000 </r>
       <r>   11.9218    0.0000 </r>
       <r>   13.0145    0.0000 </r>
       <r>   14.0381    0.0000 </r>
       <r>   14.0381    0.0000 </r>
       <r>   17.3533    0.0000 </r>
       <r>   21.2031    0.0000 </r>
       <r>   21.2031    0.0000 </r>
       <r>   22.2649    0.0000 </r>
       <r>   22.3068    0.0000 </r>
       <r>   22.3069    0.0000 </r>
       <r>   25.3722    0.0000 </r>
       <r>   31.7462    0.0000 </r>
       <r>   31.9092    0.0000 </r>
       <r>   31.9294    0.0000 </r>
       <r>   32.3922    0.0000 </r>
       <r>   33.1210    0.0000 </r>
       <r>   33.4525    0.0000 </r>
       <r>   33.5150    0.0000 </r>
       <r>   33.6660    0.0000 </r>
       <r>   36.7541    0.0000 </r>
       <r>   38.9320    0.0000 </r>
       <r>   39.0510    0.0000 </r>
       <r>   39.4982    0.0000 </r>
       <r>   39.8643    0.0000 </r>
       <r>   41.9159    0.0000 </r>
       <r>   43.7984    0.0000 </r>
       <r>   44.7636    0.0000 </r>
       <r>   45.4346    0.0000 </r>
       <r>   46.1212    0.0000 </r>
       <r>   46.5432    0.0000 </r>
       <r>   48.2021    0.0000 </r>
       <r>   50.0188    0.0000 </r>
       <r>   52.7029    0.0000 </r>
       <r>   54.9594    0.0000 </r>
       <r>   56.3860    0.0000 </r>
       <r>   56.8798    0.0000 </r>
       <r>   59.0362    0.0000 </r>
      </set>
      <set comment="kpoint 19">
       <r>  -19.6705    1.0000 </r>
       <r>  -19.6705    1.0000 </r>
       <r>  -19.6356    1.0000 </r>
       <r>  -19.5750    1.0000 </r>
       <r>  -19.5750    1.0000 </r>
       <r>  -19.4245    1.0000 </r>
       <r>  -19.4245    1.0000 </r>
       <r>  -19.4084    1.0000 </r>
       <r>  -19.3550    1.0000 </r>
       <r>  -19.3550    1.0000 </r>
       <r>   -6.5490    1.0000 </r>
       <r>   -0.8569    1.0000 </r>
       <r>    3.6495    1.0000 </r>
       <r>    3.6495    1.0000 </r>
       <r>    5.5797    0.0000 </r>
       <r>    8.7032    0.0000 </r>
       <r>    8.7032    0.0000 </r>
       <r>   11.7733    0.0000 </r>
       <r>   13.0079    0.0000 </r>
       <r>   13.9344    0.0000 </r>
       <r>   13.9344    0.0000 </r>
       <r>   17.2026    0.0000 </r>
       <r>   21.3964    0.0000 </r>
       <r>   21.3964    0.0000 </r>
       <r>   22.1228    0.0000 </r>
       <r>   22.1228    0.0000 </r>
       <r>   22.4057    0.0000 </r>
       <r>   25.0913    0.0000 </r>
       <r>   31.8465    0.0000 </r>
       <r>   31.8684    0.0000 </r>
       <r>   32.1458    0.0000 </r>
       <r>   32.3466    0.0000 </r>
       <r>   33.3085    0.0000 </r>
       <r>   33.5322    0.0000 </r>
       <r>   33.6182    0.0000 </r>
       <r>   33.9757    0.0000 </r>
       <r>   36.7935    0.0000 </r>
       <r>   39.1922    0.0000 </r>
       <r>   39.2572    0.0000 </r>
       <r>   39.6423    0.0000 </r>
       <r>   39.9962    0.0000 </r>
       <r>   42.2276    0.0000 </r>
       <r>   43.8208    0.0000 </r>
       <r>   44.4233    0.0000 </r>
       <r>   45.3369    0.0000 </r>
       <r>   46.0954    0.0000 </r>
       <r>   46.6863    0.0000 </r>
       <r>   48.1060    0.0000 </r>
       <r>   50.0888    0.0000 </r>
       <r>   52.6158    0.0000 </r>
       <r>   54.6855    0.0000 </r>
       <r>   56.1269    0.0000 </r>
       <r>   56.6168    0.0000 </r>
       <r>   58.8391    0.0000 </r>
      </set>
      <set comment="kpoint 20">
       <r>  -19.6700    1.0000 </r>
       <r>  -19.6700    1.0000 </r>
       <r>  -19.6361    1.0000 </r>
       <r>  -19.5759    1.0000 </r>
       <r>  -19.5759    1.0000 </r>
       <r>  -19.4239    1.0000 </r>
       <r>  -19.4239    1.0000 </r>
       <r>  -19.4078    1.0000 </r>
       <r>  -19.3555    1.0000 </r>
       <r>  -19.3555    1.0000 </r>
       <r>   -6.6165    1.0000 </r>
       <r>   -0.6947    1.0000 </r>
       <r>    3.6822    1.0000 </r>
       <r>    3.6822    1.0000 </r>
       <r>    5.6079    0.0000 </r>
       <r>    8.6891    0.0000 </r>
       <r>    8.6891    0.0000 </r>
       <r>   11.6111    0.0000 </r>
       <r>   13.0170    0.0000 </r>
       <r>   13.8394    0.0000 </r>
       <r>   13.8394    0.0000 </r>
       <r>   17.0352    0.0000 </r>
       <r>   21.4428    0.0000 </r>
       <r>   21.4429    0.0000 </r>
       <r>   22.0921    0.0000 </r>
       <r>   22.0921    0.0000 </r>
       <r>   22.5699    0.0000 </r>
       <r>   24.8151    0.0000 </r>
       <r>   31.7838    0.0000 </r>
       <r>   31.8036    0.0000 </r>
       <r>   32.2997    0.0000 </r>
       <r>   32.5434    0.0000 </r>
       <r>   33.2925    0.0000 </r>
       <r>   33.5199    0.0000 </r>
       <r>   33.9383    0.0000 </r>
       <r>   34.4305    0.0000 </r>
       <r>   36.7909    0.0000 </r>
       <r>   39.4303    0.0000 </r>
       <r>   39.5607    0.0000 </r>
       <r>   39.7561    0.0000 </r>
       <r>   40.1298    0.0000 </r>
       <r>   42.9714    0.0000 </r>
       <r>   43.2360    0.0000 </r>
       <r>   44.1923    0.0000 </r>
       <r>   45.1447    0.0000 </r>
       <r>   46.1502    0.0000 </r>
       <r>   46.8965    0.0000 </r>
       <r>   48.0248    0.0000 </r>
       <r>   50.1692    0.0000 </r>
       <r>   52.5341    0.0000 </r>
       <r>   54.3993    0.0000 </r>
       <r>   55.8354    0.0000 </r>
       <r>   56.3477    0.0000 </r>
       <r>   58.6532    0.0000 </r>
      </set>
      <set comment="kpoint 21">
       <r>  -19.6696    1.0000 </r>
       <r>  -19.6696    1.0000 </r>
       <r>  -19.6367    1.0000 </r>
       <r>  -19.5768    1.0000 </r>
       <r>  -19.5768    1.0000 </r>
       <r>  -19.4233    1.0000 </r>
       <r>  -19.4233    1.0000 </r>
       <r>  -19.4071    1.0000 </r>
       <r>  -19.3559    1.0000 </r>
       <r>  -19.3559    1.0000 </r>
       <r>   -6.6827    1.0000 </r>
       <r>   -0.5289    1.0000 </r>
       <r>    3.7165    1.0000 </r>
       <r>    3.7165    1.0000 </r>
       <r>    5.6373    0.0000 </r>
       <r>    8.6718    0.0000 </r>
       <r>    8.6718    0.0000 </r>
       <r>   11.4401    0.0000 </r>
       <r>   13.0364    0.0000 </r>
       <r>   13.7535    0.0000 </r>
       <r>   13.7535    0.0000 </r>
       <r>   16.8558    0.0000 </r>
       <r>   21.3041    0.0000 </r>
       <r>   21.3041    0.0000 </r>
       <r>   22.2531    0.0000 </r>
       <r>   22.2532    0.0000 </r>
       <r>   22.7517    0.0000 </r>
       <r>   24.5456    0.0000 </r>
       <r>   31.7199    0.0000 </r>
       <r>   31.7361    0.0000 </r>
       <r>   32.2486    0.0000 </r>
       <r>   32.9405    0.0000 </r>
       <r>   33.2477    0.0000 </r>
       <r>   33.4575    0.0000 </r>
       <r>   34.3246    0.0000 </r>
       <r>   34.8955    0.0000 </r>
       <r>   36.7600    0.0000 </r>
       <r>   39.5975    0.0000 </r>
       <r>   39.8480    0.0000 </r>
       <r>   39.9715    0.0000 </r>
       <r>   40.2805    0.0000 </r>
       <r>   42.8607    0.0000 </r>
       <r>   43.3660    0.0000 </r>
       <r>   44.0220    0.0000 </r>
       <r>   44.9235    0.0000 </r>
       <r>   46.2347    0.0000 </r>
       <r>   47.0916    0.0000 </r>
       <r>   48.0135    0.0000 </r>
       <r>   50.2512    0.0000 </r>
       <r>   52.4611    0.0000 </r>
       <r>   54.1062    0.0000 </r>
       <r>   55.5271    0.0000 </r>
       <r>   56.0657    0.0000 </r>
       <r>   58.4744    0.0000 </r>
      </set>
      <set comment="kpoint 22">
       <r>  -19.6690    1.0000 </r>
       <r>  -19.6690    1.0000 </r>
       <r>  -19.6372    1.0000 </r>
       <r>  -19.5778    1.0000 </r>
       <r>  -19.5778    1.0000 </r>
       <r>  -19.4226    1.0000 </r>
       <r>  -19.4226    1.0000 </r>
       <r>  -19.4065    1.0000 </r>
       <r>  -19.3564    1.0000 </r>
       <r>  -19.3564    1.0000 </r>
       <r>   -6.7476    1.0000 </r>
       <r>   -0.3596    1.0000 </r>
       <r>    3.7522    1.0000 </r>
       <r>    3.7522    1.0000 </r>
       <r>    5.6678    0.0000 </r>
       <r>    8.6511    0.0000 </r>
       <r>    8.6511    0.0000 </r>
       <r>   11.2635    0.0000 </r>
       <r>   13.0622    0.0000 </r>
       <r>   13.6770    0.0000 </r>
       <r>   13.6770    0.0000 </r>
       <r>   16.6690    0.0000 </r>
       <r>   21.0921    0.0000 </r>
       <r>   21.0921    0.0000 </r>
       <r>   22.4939    0.0000 </r>
       <r>   22.4939    0.0000 </r>
       <r>   22.9442    0.0000 </r>
       <r>   24.2865    0.0000 </r>
       <r>   31.6577    0.0000 </r>
       <r>   31.6736    0.0000 </r>
       <r>   32.1987    0.0000 </r>
       <r>   33.1937    0.0000 </r>
       <r>   33.3414    0.0000 </r>
       <r>   33.4064    0.0000 </r>
       <r>   34.7041    0.0000 </r>
       <r>   35.3656    0.0000 </r>
       <r>   36.7097    0.0000 </r>
       <r>   39.7662    0.0000 </r>
       <r>   40.1390    0.0000 </r>
       <r>   40.1605    0.0000 </r>
       <r>   40.4749    0.0000 </r>
       <r>   43.0209    0.0000 </r>
       <r>   43.4439    0.0000 </r>
       <r>   43.5553    0.0000 </r>
       <r>   44.7357    0.0000 </r>
       <r>   46.3192    0.0000 </r>
       <r>   47.2182    0.0000 </r>
       <r>   48.1045    0.0000 </r>
       <r>   50.3369    0.0000 </r>
       <r>   52.4008    0.0000 </r>
       <r>   53.8027    0.0000 </r>
       <r>   55.2081    0.0000 </r>
       <r>   55.7727    0.0000 </r>
       <r>   58.3002    0.0000 </r>
      </set>
      <set comment="kpoint 23">
       <r>  -19.6685    1.0000 </r>
       <r>  -19.6685    1.0000 </r>
       <r>  -19.6378    1.0000 </r>
       <r>  -19.5789    1.0000 </r>
       <r>  -19.5789    1.0000 </r>
       <r>  -19.4219    1.0000 </r>
       <r>  -19.4219    1.0000 </r>
       <r>  -19.4058    1.0000 </r>
       <r>  -19.3570    1.0000 </r>
       <r>  -19.3570    1.0000 </r>
       <r>   -6.8110    1.0000 </r>
       <r>   -0.1871    1.0000 </r>
       <r>    3.7894    1.0000 </r>
       <r>    3.7894    1.0000 </r>
       <r>    5.6993    0.0000 </r>
       <r>    8.6266    0.0000 </r>
       <r>    8.6266    0.0000 </r>
       <r>   11.0833    0.0000 </r>
       <r>   13.0913    0.0000 </r>
       <r>   13.6103    0.0000 </r>
       <r>   13.6103    0.0000 </r>
       <r>   16.4787    0.0000 </r>
       <r>   20.8600    0.0000 </r>
       <r>   20.8600    0.0000 </r>
       <r>   22.7611    0.0000 </r>
       <r>   22.7612    0.0000 </r>
       <r>   23.1334    0.0000 </r>
       <r>   24.0489    0.0000 </r>
       <r>   31.5964    0.0000 </r>
       <r>   31.6115    0.0000 </r>
       <r>   32.1493    0.0000 </r>
       <r>   33.1447    0.0000 </r>
       <r>   33.3543    0.0000 </r>
       <r>   33.7355    0.0000 </r>
       <r>   35.0869    0.0000 </r>
       <r>   35.8372    0.0000 </r>
       <r>   36.6352    0.0000 </r>
       <r>   39.9375    0.0000 </r>
       <r>   40.3063    0.0000 </r>
       <r>   40.4143    0.0000 </r>
       <r>   40.6779    0.0000 </r>
       <r>   42.6285    0.0000 </r>
       <r>   43.4605    0.0000 </r>
       <r>   43.5579    0.0000 </r>
       <r>   44.5956    0.0000 </r>
       <r>   46.3885    0.0000 </r>
       <r>   47.2689    0.0000 </r>
       <r>   48.2939    0.0000 </r>
       <r>   50.4318    0.0000 </r>
       <r>   52.3588    0.0000 </r>
       <r>   53.4879    0.0000 </r>
       <r>   54.8826    0.0000 </r>
       <r>   55.4732    0.0000 </r>
       <r>   58.1293    0.0000 </r>
      </set>
      <set comment="kpoint 24">
       <r>  -19.6680    1.0000 </r>
       <r>  -19.6680    1.0000 </r>
       <r>  -19.6384    1.0000 </r>
       <r>  -19.5801    1.0000 </r>
       <r>  -19.5801    1.0000 </r>
       <r>  -19.4211    1.0000 </r>
       <r>  -19.4211    1.0000 </r>
       <r>  -19.4052    1.0000 </r>
       <r>  -19.3576    1.0000 </r>
       <r>  -19.3576    1.0000 </r>
       <r>   -6.8726    1.0000 </r>
       <r>   -0.0115    1.0000 </r>
       <r>    3.8280    1.0000 </r>
       <r>    3.8280    1.0000 </r>
       <r>    5.7317    0.0000 </r>
       <r>    8.5983    0.0000 </r>
       <r>    8.5983    0.0000 </r>
       <r>   10.9009    0.0000 </r>
       <r>   13.1212    0.0000 </r>
       <r>   13.5535    0.0000 </r>
       <r>   13.5535    0.0000 </r>
       <r>   16.2887    0.0000 </r>
       <r>   20.6223    0.0000 </r>
       <r>   20.6223    0.0000 </r>
       <r>   23.0404    0.0000 </r>
       <r>   23.0405    0.0000 </r>
       <r>   23.2747    0.0000 </r>
       <r>   23.8752    0.0000 </r>
       <r>   31.5362    0.0000 </r>
       <r>   31.5512    0.0000 </r>
       <r>   32.1011    0.0000 </r>
       <r>   33.0944    0.0000 </r>
       <r>   33.3022    0.0000 </r>
       <r>   34.1303    0.0000 </r>
       <r>   35.4731    0.0000 </r>
       <r>   36.3597    0.0000 </r>
       <r>   36.5057    0.0000 </r>
       <r>   40.1125    0.0000 </r>
       <r>   40.4719    0.0000 </r>
       <r>   40.6497    0.0000 </r>
       <r>   40.9226    0.0000 </r>
       <r>   42.2303    0.0000 </r>
       <r>   43.1961    0.0000 </r>
       <r>   43.8382    0.0000 </r>
[...]
        <r>  0.0000  0.0000  0.0000  0.0000  0.0000  0.0000  0.1504  0.0000  0.0501 </r>
       </set>
       <set comment="band 24">
        <r>  0.0000  0.0000  0.0000  0.0000  0.0000  0.0000  0.1492  0.0000  0.0493 </r>
        <r>  0.0000  0.0000  0.0000  0.0000  0.0000  0.0000  0.1490  0.0000  0.0495 </r>
       </set>
       <set comment="band 25">
        <r>  0.0000  0.0000  0.0187  0.0011  0.0047  0.0746  0.0000  0.0000  0.0000 </r>
        <r>  0.0000  0.0000  0.0187  0.0010  0.0042  0.0751  0.0000  0.0000  0.0000 </r>
       </set>
       <set comment="band 26">
        <r>  0.0000  0.0000  0.0011  0.0187  0.0756  0.0052  0.0000  0.0000  0.0000 </r>
        <r>  0.0000  0.0000  0.0010  0.0188  0.0763  0.0045  0.0000  0.0000  0.0000 </r>
       </set>
       <set comment="band 27">
        <r>  0.0065  0.0237  0.0000  0.0000  0.0000  0.0000  0.0155  0.0022  0.0466 </r>
        <r>  0.0064  0.0239  0.0000  0.0000  0.0000  0.0000  0.0156  0.0022  0.0467 </r>
       </set>
       <set comment="band 28">
        <r>  0.0413  0.0268  0.0002  0.0001  0.0004  0.0012  0.0003  0.0038  0.0009 </r>
        <r>  0.0408  0.0268  0.0002  0.0001  0.0007  0.0009  0.0003  0.0038  0.0010 </r>
       </set>
       <set comment="band 29">
        <r>  0.0000  0.0000  0.0042  0.0219  0.1064  0.0234  0.0000  0.0000  0.0001 </r>
        <r>  0.0000  0.0000  0.0028  0.0239  0.0959  0.0330  0.0000  0.0000  0.0002 </r>
       </set>
       <set comment="band 30">
        <r>  0.0041  0.0001  0.0218  0.0042  0.0214  0.0997  0.0030  0.0022  0.0084 </r>
        <r>  0.0036  0.0002  0.0229  0.0029  0.0300  0.0909  0.0026  0.0025  0.0067 </r>
       </set>
       <set comment="band 31">
        <r>  0.0253  0.0005  0.0017  0.0003  0.0011  0.0070  0.0396  0.0356  0.1231 </r>
        <r>  0.0276  0.0007  0.0016  0.0002  0.0017  0.0064  0.0413  0.0336  0.1279 </r>
       </set>
       <set comment="band 32">
        <r>  0.0590  0.0097  0.0000  0.0000  0.0001  0.0000  0.0285  0.0376  0.0855 </r>
        <r>  0.0593  0.0093  0.0000  0.0000  0.0000  0.0000  0.0267  0.0383  0.0802 </r>
       </set>
       <set comment="band 33">
        <r>  0.0049  0.0004  0.0012  0.0962  0.0071  0.0712  0.0035  0.0078  0.0117 </r>
        <r>  0.0003  0.0017  0.0805  0.0114  0.0784  0.0016  0.0003  0.0588  0.0008 </r>
       </set>
       <set comment="band 34">
        <r>  0.0005  0.0046  0.0746  0.0020  0.0630  0.0057  0.0020  0.1498  0.0047 </r>
        <r>  0.0077  0.0007  0.0097  0.0739  0.0017  0.0652  0.0098  0.0207  0.0289 </r>
       </set>
       <set comment="band 35">
        <r>  0.0025  0.0036  0.0082  0.0108  0.0064  0.0039  0.0324  0.0665  0.0935 </r>
        <r>  0.0033  0.0225  0.0040  0.0060  0.0082  0.0091  0.0042  0.4841  0.0113 </r>
       </set>
       <set comment="band 36">
        <r>  0.0037  0.0158  0.0001  0.0069  0.0214  0.0010  0.0054  0.3927  0.0074 </r>
        <r>  0.0029  0.0010  0.0040  0.0333  0.0043  0.0007  0.0219  0.0973  0.0791 </r>
       </set>
       <set comment="band 37">
        <r>  0.0016  0.0089  0.0064  0.0115  0.0062  0.0023  0.0181  0.0138  0.0413 </r>
        <r>  0.0012  0.0069  0.0035  0.0143  0.0046  0.0032  0.0223  0.0199  0.0538 </r>
       </set>
       <set comment="band 38">
        <r>  0.0285  0.0030  0.0066  0.0212  0.0043  0.0075  0.0026  0.0655  0.0004 </r>
        <r>  0.0060  0.0012  0.0080  0.0155  0.0076  0.0075  0.0055  0.0306  0.0028 </r>
       </set>
       <set comment="band 39">
        <r>  0.0168  0.0043  0.0285  0.0005  0.0003  0.0076  0.0358  0.0292  0.0277 </r>
        <r>  0.0353  0.0048  0.0125  0.0003  0.0003  0.0146  0.0215  0.0007  0.0398 </r>
       </set>
       <set comment="band 40">
        <r>  0.0259  0.0007  0.0039  0.0005  0.0020  0.0003  0.0161  0.0038  0.0753 </r>
        <r>  0.0101  0.0022  0.0012  0.0055  0.0000  0.0004  0.0088  0.0161  0.0151 </r>
       </set>
       <set comment="band 41">
        <r>  0.0119  0.0045  0.0147  0.0145  0.0014  0.0024  0.0090  0.0077  0.0163 </r>
        <r>  0.0318  0.0140  0.0079  0.0018  0.0020  0.0048  0.0483  0.0004  0.1205 </r>
       </set>
       <set comment="band 42">
        <r>  0.0007  0.0010  0.0032  0.0251  0.0004  0.0115  0.0443  0.0051  0.0264 </r>
        <r>  0.0039  0.0006  0.0121  0.0221  0.0016  0.0091  0.0296  0.0113  0.0327 </r>
       </set>
       <set comment="band 43">
        <r>  0.0296  0.0239  0.0087  0.0018  0.0070  0.0015  0.0350  0.0195  0.0990 </r>
        <r>  0.0057  0.0021  0.0203  0.0122  0.0110  0.0098  0.0113  0.0147  0.0036 </r>
       </set>
       <set comment="band 44">
        <r>  0.0002  0.0017  0.0175  0.0109  0.0008  0.0224  0.0304  0.0153  0.0349 </r>
        <r>  0.0052  0.0072  0.0213  0.0046  0.0219  0.0121  0.0374  0.0371  0.0228 </r>
       </set>
       <set comment="band 45">
        <r>  0.0058  0.0018  0.0044  0.0048  0.0002  0.0077  0.2037  0.0107  0.0159 </r>
        <r>  0.0064  0.0069  0.0094  0.0028  0.0014  0.0016  0.1345  0.0032  0.0042 </r>
       </set>
       <set comment="band 46">
        <r>  0.0008  0.0058  0.0036  0.0041  0.0220  0.0033  0.0767  0.0015  0.0104 </r>
        <r>  0.0004  0.0026  0.0044  0.0051  0.0263  0.0072  0.1356  0.0008  0.0345 </r>
       </set>
       <set comment="band 47">
        <r>  0.0006  0.0086  0.0020  0.0288  0.1664  0.0098  0.0058  0.0003  0.0125 </r>
        <r>  0.0006  0.0054  0.0007  0.0278  0.1374  0.0124  0.0009  0.0015  0.0064 </r>
       </set>
       <set comment="band 48">
        <r>  0.0258  0.0407  0.0066  0.0151  0.0393  0.0046  0.0132  0.0051  0.0275 </r>
        <r>  0.0235  0.0436  0.0058  0.0140  0.0356  0.0002  0.0311  0.0042  0.0388 </r>
       </set>
       <set comment="band 49">
        <r>  0.0004  0.0014  0.0327  0.0019  0.0113  0.1722  0.0095  0.0005  0.0008 </r>
        <r>  0.0004  0.0016  0.0299  0.0019  0.0090  0.1766  0.0091  0.0005  0.0010 </r>
       </set>
       <set comment="band 50">
        <r>  0.0111  0.0170  0.0026  0.0034  0.0027  0.0021  0.0119  0.0074  0.0104 </r>
        <r>  0.0057  0.0133  0.0015  0.0097  0.0041  0.0035  0.0062  0.0023  0.0217 </r>
       </set>
       <set comment="band 51">
        <r>  0.0025  0.0106  0.0214  0.0011  0.0037  0.0235  0.0329  0.0011  0.0090 </r>
        <r>  0.0026  0.0107  0.0282  0.0019  0.0077  0.0129  0.0206  0.0040  0.0211 </r>
       </set>
       <set comment="band 52">
        <r>  0.0103  0.0078  0.0036  0.0069  0.0237  0.0070  0.0101  0.0165  0.0012 </r>
        <r>  0.0023  0.0012  0.0064  0.0016  0.0069  0.0288  0.0016  0.0236  0.0016 </r>
       </set>
       <set comment="band 53">
        <r>  0.0106  0.0112  0.0100  0.0072  0.0124  0.0030  0.0024  0.0073  0.0109 </r>
        <r>  0.0037  0.0060  0.0093  0.0027  0.0150  0.0218  0.0179  0.0019  0.0207 </r>
       </set>
       <set comment="band 54">
        <r>  0.0099  0.0084  0.0147  0.0053  0.0198  0.0268  0.0144  0.0061  0.0196 </r>
        <r>  0.0151  0.0064  0.0077  0.0106  0.0355  0.0021  0.0334  0.0124  0.0520 </r>
       </set>
      </set>
      <set comment="kpoint 100">
       <set comment="band 1">
        <r>  0.0000  0.0000  0.0002  0.0002  0.2563  0.2402  0.0000  0.0000  0.0000 </r>
        <r>  0.0000  0.0000  0.0002  0.0002  0.2402  0.2563  0.0000  0.0000  0.0000 </r>
       </set>
       <set comment="band 2">
        <r>  0.0000  0.0000  0.0002  0.0002  0.2402  0.2563  0.0000  0.0000  0.0000 </r>
        <r>  0.0000  0.0000  0.0002  0.0002  0.2563  0.2402  0.0000  0.0000  0.0000 </r>
       </set>
       <set comment="band 3">
        <r>  0.0004  0.0000  0.0000  0.0000  0.0000  0.0000  0.0513  0.2897  0.1539 </r>
        <r>  0.0004  0.0000  0.0000  0.0000  0.0000  0.0000  0.0503  0.2953  0.1510 </r>
       </set>
       <set comment="band 4">
        <r>  0.0004  0.0000  0.0000  0.0000  0.0000  0.0000  0.0503  0.2953  0.1510 </r>
        <r>  0.0004  0.0000  0.0000  0.0000  0.0000  0.0000  0.0513  0.2897  0.1539 </r>
       </set>
       <set comment="band 5">
        <r>  0.0000  0.0000  0.0000  0.0000  0.0000  0.0000  0.3134  0.0000  0.1045 </r>
        <r>  0.0000  0.0000  0.0000  0.0000  0.0000  0.0000  0.4330  0.0000  0.1443 </r>
       </set>
       <set comment="band 6">
        <r>  0.0000  0.0000  0.0000  0.0000  0.0000  0.0000  0.4330  0.0000  0.1443 </r>
        <r>  0.0000  0.0000  0.0000  0.0000  0.0000  0.0000  0.3134  0.0000  0.1045 </r>
       </set>
       <set comment="band 7">
        <r>  0.0004  0.0001  0.0000  0.0000  0.0000  0.0000  0.0733  0.2046  0.2198 </r>
        <r>  0.0004  0.0001  0.0000  0.0000  0.0000  0.0000  0.0737  0.2033  0.2212 </r>
       </set>
       <set comment="band 8">
        <r>  0.0004  0.0001  0.0000  0.0000  0.0000  0.0000  0.0737  0.2033  0.2212 </r>
        <r>  0.0004  0.0001  0.0000  0.0000  0.0000  0.0000  0.0733  0.2046  0.2198 </r>
       </set>
       <set comment="band 9">
        <r>  0.0000  0.0000  0.0001  0.0001  0.2525  0.2462  0.0000  0.0000  0.0000 </r>
        <r>  0.0000  0.0000  0.0001  0.0001  0.2462  0.2525  0.0000  0.0000  0.0000 </r>
       </set>
       <set comment="band 10">
        <r>  0.0000  0.0000  0.0001  0.0001  0.2462  0.2525  0.0000  0.0000  0.0000 </r>
        <r>  0.0000  0.0000  0.0001  0.0001  0.2525  0.2462  0.0000  0.0000  0.0000 </r>
       </set>
       <set comment="band 11">
        <r>  0.2808  0.0582  0.0000  0.0000  0.0000  0.0000  0.0002  0.0062  0.0006 </r>
        <r>  0.2803  0.0583  0.0000  0.0000  0.0000  0.0000  0.0002  0.0062  0.0006 </r>
       </set>
       <set comment="band 12">
        <r>  0.2803  0.0583  0.0000  0.0000  0.0000  0.0000  0.0002  0.0062  0.0006 </r>
        <r>  0.2808  0.0582  0.0000  0.0000  0.0000  0.0000  0.0002  0.0062  0.0006 </r>
       </set>
       <set comment="band 13">
        <r>  0.0000  0.0000  0.1425  0.1437  0.0019  0.0019  0.0000  0.0000  0.0000 </r>
        <r>  0.0000  0.0000  0.1438  0.1425  0.0019  0.0019  0.0000  0.0000  0.0000 </r>
       </set>
       <set comment="band 14">
        <r>  0.0000  0.0000  0.1437  0.1425  0.0019  0.0019  0.0000  0.0000  0.0000 </r>
        <r>  0.0000  0.0000  0.1425  0.1437  0.0019  0.0019  0.0000  0.0000  0.0000 </r>
       </set>
       <set comment="band 15">
        <r>  0.0650  0.0734  0.0000  0.0000  0.0000  0.0000  0.0065  0.0278  0.0196 </r>
        <r>  0.0625  0.0764  0.0000  0.0000  0.0000  0.0000  0.0063  0.0289  0.0189 </r>
       </set>
       <set comment="band 16">
        <r>  0.0625  0.0763  0.0000  0.0000  0.0000  0.0000  0.0063  0.0289  0.0189 </r>
        <r>  0.0650  0.0734  0.0000  0.0000  0.0000  0.0000  0.0065  0.0278  0.0196 </r>
       </set>
       <set comment="band 17">
        <r>  0.0000  0.0000  0.1534  0.1668  0.0189  0.0203  0.0000  0.0000  0.0000 </r>
        <r>  0.0000  0.0000  0.1667  0.1536  0.0205  0.0186  0.0000  0.0000  0.0000 </r>
       </set>
       <set comment="band 18">
        <r>  0.0000  0.0000  0.1670  0.1533  0.0201  0.0191  0.0000  0.0000  0.0000 </r>
        <r>  0.0000  0.0000  0.1537  0.1665  0.0185  0.0207  0.0000  0.0000  0.0000 </r>
       </set>
       <set comment="band 19">
        <r>  0.0457  0.2322  0.0000  0.0000  0.0000  0.0000  0.0010  0.0159  0.0029 </r>
        <r>  0.0482  0.2204  0.0000  0.0000  0.0000  0.0000  0.0010  0.0151  0.0030 </r>
       </set>
       <set comment="band 20">
        <r>  0.0480  0.2204  0.0000  0.0000  0.0000  0.0000  0.0009  0.0150  0.0030 </r>
        <r>  0.0455  0.2322  0.0000  0.0000  0.0000  0.0000  0.0009  0.0158  0.0028 </r>
       </set>
       <set comment="band 21">
        <r>  0.0000  0.0000  0.0208  0.0175  0.1162  0.0992  0.0000  0.0000  0.0000 </r>
        <r>  0.0000  0.0000  0.0177  0.0205  0.0989  0.1164  0.0000  0.0000  0.0000 </r>
       </set>
       <set comment="band 22">
        <r>  0.0000  0.0000  0.0173  0.0210  0.0994  0.1160  0.0000  0.0000  0.0000 </r>
        <r>  0.0000  0.0000  0.0204  0.0179  0.1165  0.0989  0.0000  0.0000  0.0000 </r>
       </set>
       <set comment="band 23">
        <r>  0.0000  0.0000  0.0000  0.0000  0.0000  0.0000  0.1486  0.0000  0.0491 </r>
        <r>  0.0000  0.0000  0.0000  0.0000  0.0000  0.0000  0.1512  0.0000  0.0502 </r>
       </set>
       <set comment="band 24">
        <r>  0.0000  0.0000  0.0000  0.0000  0.0000  0.0000  0.1512  0.0000  0.0504 </r>
        <r>  0.0000  0.0000  0.0000  0.0000  0.0000  0.0000  0.1483  0.0000  0.0494 </r>
       </set>
       <set comment="band 25">
        <r>  0.0062  0.0067  0.0084  0.0028  0.0102  0.0240  0.0034  0.0001  0.0106 </r>
        <r>  0.0035  0.0114  0.0071  0.0041  0.0067  0.0276  0.0022  0.0001  0.0064 </r>
       </set>
       <set comment="band 26">
        <r>  0.0003  0.0200  0.0056  0.0052  0.0306  0.0016  0.0001  0.0001  0.0004 </r>
        <r>  0.0115  0.0005  0.0010  0.0095  0.0190  0.0140  0.0061  0.0000  0.0183 </r>
       </set>
       <set comment="band 27">
        <r>  0.0129  0.0066  0.0016  0.0061  0.0008  0.0240  0.0075  0.0001  0.0224 </r>
        <r>  0.0035  0.0229  0.0080  0.0001  0.0169  0.0069  0.0025  0.0001  0.0074 </r>
       </set>
       <set comment="band 28">
        <r>  0.0145  0.0214  0.0005  0.0051  0.0212  0.0019  0.0038  0.0000  0.0120 </r>
        <r>  0.0151  0.0201  0.0003  0.0053  0.0220  0.0012  0.0044  0.0000  0.0135 </r>
       </set>
       <set comment="band 29">
        <r>  0.0021  0.0012  0.0190  0.0098  0.0436  0.1035  0.0000  0.0002  0.0001 </r>
        <r>  0.0020  0.0012  0.0217  0.0070  0.0587  0.0881  0.0000  0.0002  0.0000 </r>
       </set>
       <set comment="band 30">
        <r>  0.0000  0.0000  0.0117  0.0170  0.1027  0.0539  0.0000  0.0000  0.0001 </r>
        <r>  0.0000  0.0000  0.0087  0.0205  0.0849  0.0712  0.0000  0.0000  0.0001 </r>
       </set>
       <set comment="band 31">
        <r>  0.0460  0.0016  0.0003  0.0000  0.0002  0.0011  0.0368  0.0399  0.1132 </r>
        <r>  0.0481  0.0015  0.0003  0.0000  0.0003  0.0010  0.0379  0.0384  0.1164 </r>
       </set>
       <set comment="band 32">
        <r>  0.0542  0.0034  0.0000  0.0000  0.0000  0.0000  0.0352  0.0407  0.1054 </r>
        <r>  0.0538  0.0033  0.0000  0.0000  0.0000  0.0000  0.0334  0.0414  0.1006 </r>
       </set>
       <set comment="band 33">
        <r>  0.0049  0.0008  0.0034  0.0921  0.0096  0.0681  0.0036  0.0205  0.0119 </r>
        <r>  0.0005  0.0017  0.0783  0.0127  0.0757  0.0034  0.0007  0.0629  0.0019 </r>
       </set>
       <set comment="band 34">
        <r>  0.0010  0.0039  0.0752  0.0049  0.0618  0.0099  0.0016  0.1386  0.0035 </r>
        <r>  0.0084  0.0004  0.0131  0.0728  0.0042  0.0664  0.0095  0.0141  0.0275 </r>
       </set>
       <set comment="band 35">
        <r>  0.0039  0.0013  0.0035  0.0161  0.0013  0.0028  0.0350  0.0327  0.0971 </r>
        <r>  0.0024  0.0227  0.0025  0.0009  0.0114  0.0040  0.0019  0.5665  0.0038 </r>
       </set>
       <set comment="band 36">
        <r>  0.0018  0.0173  0.0008  0.0060  0.0288  0.0007  0.0016  0.4403  0.0010 </r>
        <r>  0.0024  0.0005  0.0027  0.0425  0.0042  0.0026  0.0219  0.0261  0.0818 </r>
       </set>
       <set comment="band 37">
        <r>  0.0052  0.0061  0.0142  0.0199  0.0070  0.0059  0.0192  0.0003  0.0376 </r>
        <r>  0.0034  0.0045  0.0076  0.0202  0.0074  0.0100  0.0250  0.0020  0.0484 </r>
       </set>
       <set comment="band 38">
        <r>  0.0242  0.0090  0.0062  0.0094  0.0017  0.0068  0.0021  0.0490  0.0046 </r>
        <r>  0.0025  0.0035  0.0091  0.0057  0.0035  0.0046  0.0117  0.0394  0.0283 </r>
       </set>
       <set comment="band 39">
        <r>  0.0130  0.0036  0.0257  0.0012  0.0002  0.0067  0.0347  0.0448  0.0299 </r>
        <r>  0.0329  0.0070  0.0109  0.0003  0.0005  0.0134  0.0122  0.0030  0.0255 </r>
       </set>
       <set comment="band 40">
        <r>  0.0303  0.0009  0.0038  0.0005  0.0021  0.0002  0.0120  0.0026  0.0805 </r>
        <r>  0.0124  0.0025  0.0010  0.0057  0.0000  0.0005  0.0083  0.0148  0.0151 </r>
       </set>
       <set comment="band 41">
        <r>  0.0125  0.0035  0.0117  0.0081  0.0009  0.0008  0.0063  0.0071  0.0210 </r>
        <r>  0.0346  0.0104  0.0043  0.0024  0.0016  0.0058  0.0538  0.0001  0.1392 </r>
       </set>
       <set comment="band 42">
        <r>  0.0010  0.0018  0.0040  0.0309  0.0006  0.0129  0.0500  0.0051  0.0226 </r>
        <r>  0.0026  0.0018  0.0146  0.0209  0.0021  0.0082  0.0228  0.0111  0.0141 </r>
       </set>
       <set comment="band 43">
        <r>  0.0300  0.0198  0.0102  0.0020  0.0064  0.0016  0.0385  0.0223  0.0923 </r>
        <r>  0.0065  0.0020  0.0213  0.0124  0.0098  0.0109  0.0142  0.0142  0.0027 </r>
       </set>
       <set comment="band 44">
        <r>  0.0005  0.0020  0.0147  0.0109  0.0009  0.0224  0.0282  0.0141  0.0334 </r>
        <r>  0.0056  0.0064  0.0207  0.0040  0.0227  0.0111  0.0351  0.0376  0.0216 </r>
       </set>
       <set comment="band 45">
        <r>  0.0060  0.0017  0.0036  0.0041  0.0005  0.0059  0.2086  0.0110  0.0153 </r>
        <r>  0.0068  0.0064  0.0082  0.0027  0.0015  0.0003  0.1426  0.0030  0.0042 </r>
       </set>
       <set comment="band 46">
        <r>  0.0021  0.0124  0.0057  0.0061  0.0426  0.0018  0.0737  0.0026  0.0047 </r>
        <r>  0.0014  0.0074  0.0048  0.0067  0.0336  0.0105  0.1470  0.0016  0.0348 </r>
       </set>
       <set comment="band 47">
        <r>  0.0010  0.0088  0.0009  0.0195  0.1220  0.0055  0.0098  0.0006  0.0222 </r>
        <r>  0.0010  0.0067  0.0013  0.0188  0.0939  0.0091  0.0046  0.0016  0.0147 </r>
       </set>
       <set comment="band 48">
        <r>  0.0206  0.0288  0.0057  0.0241  0.0673  0.0056  0.0080  0.0039  0.0227 </r>
        <r>  0.0193  0.0342  0.0048  0.0222  0.0705  0.0010  0.0174  0.0033  0.0327 </r>
       </set>
       <set comment="band 49">
        <r>  0.0003  0.0014  0.0343  0.0012  0.0067  0.1762  0.0071  0.0009  0.0009 </r>
        <r>  0.0004  0.0018  0.0310  0.0014  0.0078  0.1749  0.0066  0.0007  0.0011 </r>
       </set>
       <set comment="band 50">
        <r>  0.0137  0.0254  0.0038  0.0036  0.0032  0.0037  0.0127  0.0081  0.0142 </r>
        <r>  0.0074  0.0192  0.0035  0.0082  0.0041  0.0030  0.0078  0.0033  0.0309 </r>
       </set>
       <set comment="band 51">
        <r>  0.0020  0.0098  0.0204  0.0011  0.0022  0.0208  0.0319  0.0015  0.0081 </r>
        <r>  0.0020  0.0095  0.0265  0.0028  0.0079  0.0132  0.0176  0.0043  0.0166 </r>
       </set>
       <set comment="band 52">
        <r>  0.0112  0.0099  0.0028  0.0066  0.0243  0.0057  0.0117  0.0163  0.0005 </r>
        <r>  0.0027  0.0016  0.0077  0.0009  0.0071  0.0317  0.0023  0.0222  0.0019 </r>
       </set>
       <set comment="band 53">
        <r>  0.0087  0.0098  0.0107  0.0072  0.0121  0.0037  0.0022  0.0058  0.0094 </r>
        <r>  0.0031  0.0052  0.0085  0.0027  0.0149  0.0183  0.0140  0.0011  0.0174 </r>
       </set>
       <set comment="band 54">
        <r>  0.0093  0.0092  0.0151  0.0054  0.0195  0.0259  0.0136  0.0056  0.0178 </r>
        <r>  0.0141  0.0069  0.0074  0.0112  0.0364  0.0022  0.0323  0.0124  0.0503 </r>
       </set>
      </set>
     </set>
    </set>
   </array>
  </projected>
 </calculation>
 <structure name="finalpos" >
  <crystal>
   <varray name="basis" >
    <v>       0.00000000       2.81650000       2.81650000 </v>
    <v>       2.81650000       0.00000000       2.81650000 </v>
    <v>       2.81650000       2.81650000       0.00000000 </v>
   </varray>
   <i name="volume">     44.68474278 </i>
   <varray name="rec_basis" >
    <v>      -0.17752530       0.17752530       0.17752530 </v>
    <v>       0.17752530      -0.17752530       0.17752530 </v>
    <v>       0.17752530       0.17752530      -0.17752530 </v>
   </varray>
  </crystal>
  <varray name="positions" >
   <v>       0.00000000       0.00000000       0.00000000 </v>
   <v>       0.25000000       0.25000000       0.25000000 </v>
  </varray>
 </structure>
</modeling>
