   2   2   1   0
  0.2779610E+02  0.4283936E-09  0.4283936E-09  0.4283936E-09  0.5000000E-15
  1.000000000000000E-004
  CAR 
 unknown system                          
     10.41864220    -11.34669505  301      4.16574846      1.00000000
    -11.347  0.0000E+00  0.0000E+00
    -11.274  0.0000E+00  0.0000E+00
    -11.202  0.0000E+00  0.0000E+00
    -11.129  0.0000E+00  0.0000E+00
    -11.056  0.0000E+00  0.0000E+00
    -10.984  0.0000E+00  0.0000E+00
    -10.911  0.0000E+00  0.0000E+00
    -10.839  0.0000E+00  0.0000E+00
    -10.766 -0.2704E-28 -0.1962E-29
    -10.694 -0.6130E-19 -0.4447E-20
    -10.621 -0.1956E-11 -0.1419E-12
    -10.549 -0.9057E-06 -0.6571E-07
    -10.476 -0.5583E-02 -0.4051E-03
    -10.404 -0.2784E+00 -0.2060E-01
    -10.331  0.5019E+01  0.3435E+00
    -10.258  0.2990E+02  0.2513E+01
    -10.186  0.2124E+02  0.4054E+01
    -10.113 -0.7090E+00  0.4002E+01
    -10.041 -0.3029E-01  0.4000E+01
     -9.968 -0.7956E-05  0.4000E+01
     -9.896 -0.2863E-10  0.4000E+01
     -9.823 -0.1211E-08  0.4000E+01
     -9.751 -0.7004E-04  0.4000E+01
     -9.678 -0.4738E-01  0.3997E+01
     -9.605  0.5548E+00  0.4037E+01
     -9.533  0.5762E+01  0.4455E+01
     -9.460  0.1580E+02  0.5601E+01
     -9.388  0.3165E+02  0.7898E+01
     -9.315  0.3003E+02  0.1008E+02
     -9.243 -0.1011E+01  0.1000E+02
     -9.170 -0.4168E-01  0.1000E+02
     -9.098 -0.9684E-05  0.1000E+02
     -9.025 -0.2960E-10  0.1000E+02
     -8.953  0.0000E+00  0.1000E+02
     -8.880  0.0000E+00  0.1000E+02
     -8.807  0.0000E+00  0.1000E+02
     -8.735  0.0000E+00  0.1000E+02
     -8.662  0.0000E+00  0.1000E+02
     -8.590  0.0000E+00  0.1000E+02
     -8.517  0.0000E+00  0.1000E+02
     -8.445  0.0000E+00  0.1000E+02
     -8.372  0.0000E+00  0.1000E+02
     -8.300  0.0000E+00  0.1000E+02
     -8.227  0.0000E+00  0.1000E+02
     -8.154  0.0000E+00  0.1000E+02
     -8.082  0.0000E+00  0.1000E+02
     -8.009  0.0000E+00  0.1000E+02
     -7.937  0.0000E+00  0.1000E+02
     -7.864  0.0000E+00  0.1000E+02
     -7.792  0.0000E+00  0.1000E+02
     -7.719 -0.1198E-27  0.1000E+02
     -7.647 -0.1745E-18  0.1000E+02
     -7.574 -0.3530E-11  0.1000E+02
     -7.501 -0.1015E-05  0.1000E+02
     -7.429 -0.3638E-02  0.1000E+02
     -7.356 -0.3142E-01  0.9997E+01
     -7.284  0.1725E+01  0.1012E+02
     -7.211  0.1468E+01  0.1023E+02
     -7.139  0.8989E+00  0.1029E+02
     -7.066  0.7450E+00  0.1035E+02
     -6.994  0.6534E+00  0.1040E+02
     -6.921  0.5930E+00  0.1044E+02
     -6.849  0.5500E+00  0.1048E+02
     -6.776  0.5183E+00  0.1052E+02
     -6.703  0.4940E+00  0.1055E+02
     -6.631  0.4760E+00  0.1059E+02
     -6.558  0.4625E+00  0.1062E+02
     -6.486  0.4523E+00  0.1065E+02
     -6.413  0.4462E+00  0.1069E+02
     -6.341  0.4444E+00  0.1072E+02
     -6.268  0.4464E+00  0.1075E+02
     -6.196  0.4529E+00  0.1078E+02
     -6.123  0.4666E+00  0.1082E+02
     -6.050  0.4932E+00  0.1085E+02
     -5.978  0.5283E+00  0.1089E+02
     -5.905  0.1148E+01  0.1097E+02
     -5.833  0.1590E+01  0.1109E+02
     -5.760  0.8994E+00  0.1115E+02
     -5.688  0.8238E+00  0.1121E+02
     -5.615  0.8178E+00  0.1127E+02
     -5.543  0.8701E+00  0.1134E+02
     -5.470  0.9506E+00  0.1141E+02
     -5.398  0.2975E+01  0.1162E+02
     -5.325  0.5096E+01  0.1199E+02
     -5.252  0.1391E+00  0.1200E+02
     -5.180 -0.2181E-01  0.1200E+02
     -5.107 -0.1594E-04  0.1200E+02
     -5.035 -0.1478E-09  0.1200E+02
     -4.962  0.0000E+00  0.1200E+02
     -4.890  0.0000E+00  0.1200E+02
     -4.817  0.0000E+00  0.1200E+02
     -4.745  0.0000E+00  0.1200E+02
     -4.672  0.0000E+00  0.1200E+02
     -4.599  0.0000E+00  0.1200E+02
     -4.527  0.0000E+00  0.1200E+02
     -4.454  0.0000E+00  0.1200E+02
     -4.382  0.0000E+00  0.1200E+02
     -4.309  0.0000E+00  0.1200E+02
     -4.237  0.0000E+00  0.1200E+02
     -4.164  0.0000E+00  0.1200E+02
     -4.092  0.0000E+00  0.1200E+02
     -4.019  0.0000E+00  0.1200E+02
     -3.946  0.0000E+00  0.1200E+02
     -3.874  0.0000E+00  0.1200E+02
     -3.801  0.0000E+00  0.1200E+02
     -3.729  0.0000E+00  0.1200E+02
     -3.656  0.0000E+00  0.1200E+02
     -3.584  0.0000E+00  0.1200E+02
     -3.511  0.0000E+00  0.1200E+02
     -3.439  0.0000E+00  0.1200E+02
     -3.366  0.0000E+00  0.1200E+02
     -3.294  0.0000E+00  0.1200E+02
     -3.221  0.0000E+00  0.1200E+02
     -3.148  0.0000E+00  0.1200E+02
     -3.076  0.0000E+00  0.1200E+02
     -3.003  0.0000E+00  0.1200E+02
     -2.931  0.0000E+00  0.1200E+02
     -2.858  0.0000E+00  0.1200E+02
     -2.786  0.0000E+00  0.1200E+02
     -2.713  0.0000E+00  0.1200E+02
     -2.641  0.0000E+00  0.1200E+02
     -2.568  0.0000E+00  0.1200E+02
     -2.495  0.0000E+00  0.1200E+02
     -2.423  0.0000E+00  0.1200E+02
     -2.350  0.0000E+00  0.1200E+02
     -2.278  0.0000E+00  0.1200E+02
     -2.205  0.0000E+00  0.1200E+02
     -2.133  0.0000E+00  0.1200E+02
     -2.060  0.0000E+00  0.1200E+02
     -1.988  0.0000E+00  0.1200E+02
     -1.915 -0.4554E-37  0.1200E+02
     -1.842 -0.2497E-26  0.1200E+02
     -1.770 -0.1977E-17  0.1200E+02
     -1.697 -0.2169E-10  0.1200E+02
     -1.625 -0.3406E-05  0.1200E+02
     -1.552 -0.6988E-02  0.1200E+02
     -1.480 -0.3672E-01  0.1200E+02
     -1.407  0.2865E+01  0.1220E+02
     -1.335  0.3741E+01  0.1248E+02
     -1.262  0.3984E+01  0.1277E+02
     -1.190  0.2830E+01  0.1297E+02
     -1.117  0.5850E+00  0.1301E+02
     -1.044  0.4093E+00  0.1304E+02
     -0.972  0.3633E+00  0.1307E+02
     -0.899  0.3222E+00  0.1309E+02
     -0.827  0.3039E+00  0.1311E+02
     -0.754  0.3046E+00  0.1314E+02
     -0.682  0.2766E+00  0.1316E+02
     -0.609  0.2271E+00  0.1317E+02
     -0.537  0.2549E+00  0.1319E+02
     -0.464  0.2732E+00  0.1321E+02
     -0.391  0.1868E+00  0.1322E+02
     -0.319  0.2237E+00  0.1324E+02
     -0.246  0.2617E+00  0.1326E+02
     -0.174  0.1629E+00  0.1327E+02
     -0.101  0.2278E+00  0.1329E+02
     -0.029  0.2152E+00  0.1330E+02
      0.044  0.1703E+00  0.1332E+02
      0.116  0.2244E+00  0.1333E+02
      0.189  0.1761E+00  0.1335E+02
      0.261  0.1920E+00  0.1336E+02
      0.334  0.1969E+00  0.1337E+02
      0.407  0.1672E+00  0.1339E+02
      0.479  0.2007E+00  0.1340E+02
      0.552  0.1646E+00  0.1341E+02
      0.624  0.1778E+00  0.1343E+02
      0.697  0.3017E+00  0.1345E+02
      0.769  0.8962E+00  0.1351E+02
      0.842  0.4901E+00  0.1355E+02
      0.914  0.7617E+00  0.1360E+02
      0.987  0.1273E+01  0.1370E+02
      1.060  0.9210E+00  0.1376E+02
      1.132  0.1762E+01  0.1389E+02
      1.205  0.1914E+01  0.1403E+02
      1.277  0.2170E+01  0.1419E+02
      1.350  0.1617E+01  0.1430E+02
      1.422  0.1543E+01  0.1442E+02
      1.495  0.1495E+01  0.1452E+02
      1.567  0.1570E+01  0.1464E+02
      1.640  0.2264E+01  0.1480E+02
      1.713  0.3111E+01  0.1503E+02
      1.785  0.1163E+01  0.1511E+02
      1.858  0.1010E+01  0.1519E+02
      1.930  0.8576E+00  0.1525E+02
      2.003  0.9388E+00  0.1532E+02
      2.075  0.8814E+00  0.1538E+02
      2.148  0.1052E+01  0.1546E+02
      2.220  0.8463E+00  0.1552E+02
      2.293  0.1021E+01  0.1559E+02
      2.365  0.7982E+00  0.1565E+02
      2.438  0.9875E+00  0.1572E+02
      2.511  0.8435E+00  0.1578E+02
      2.583  0.9129E+00  0.1585E+02
      2.656  0.9335E+00  0.1592E+02
      2.728  0.9332E+00  0.1598E+02
      2.801  0.9926E+00  0.1606E+02
      2.873  0.1590E+01  0.1617E+02
      2.946  0.1825E+01  0.1630E+02
      3.018  0.1355E+01  0.1640E+02
      3.091  0.1516E+01  0.1651E+02
      3.164  0.2023E+01  0.1666E+02
      3.236  0.1229E+01  0.1675E+02
      3.309  0.1291E+01  0.1684E+02
      3.381  0.1107E+01  0.1692E+02
      3.454  0.1188E+01  0.1701E+02
      3.526  0.1125E+01  0.1709E+02
      3.599  0.1178E+01  0.1718E+02
      3.671  0.1242E+01  0.1727E+02
      3.744  0.1348E+01  0.1736E+02
      3.816  0.1819E+01  0.1750E+02
      3.889  0.1541E+01  0.1761E+02
      3.962  0.1325E+01  0.1770E+02
      4.034  0.1167E+01  0.1779E+02
      4.107  0.1616E+01  0.1791E+02
      4.179  0.1361E+01  0.1800E+02
      4.252 -0.3993E-01  0.1800E+02
      4.324  0.3233E+00  0.1802E+02
      4.397  0.3038E+00  0.1805E+02
      4.469  0.1217E+00  0.1806E+02
      4.542  0.2462E+00  0.1807E+02
      4.615  0.1235E+00  0.1808E+02
      4.687  0.2701E+00  0.1810E+02
      4.760  0.9753E-01  0.1811E+02
      4.832  0.2696E+00  0.1813E+02
      4.905  0.1535E+00  0.1814E+02
      4.977  0.2358E+00  0.1816E+02
      5.050  0.1836E+00  0.1817E+02
      5.122  0.2289E+00  0.1819E+02
      5.195  0.2289E+00  0.1820E+02
      5.268  0.2307E+00  0.1822E+02
      5.340  0.1295E+01  0.1831E+02
      5.413  0.1264E+01  0.1841E+02
      5.485  0.9517E+00  0.1847E+02
      5.558  0.1725E+01  0.1860E+02
      5.630  0.6274E+00  0.1865E+02
      5.703  0.2448E+00  0.1866E+02
      5.775  0.3983E+00  0.1869E+02
      5.848  0.1704E+01  0.1882E+02
      5.920  0.1038E+01  0.1889E+02
      5.993  0.7819E+00  0.1895E+02
      6.066  0.7276E+00  0.1900E+02
      6.138  0.5706E+00  0.1904E+02
      6.211  0.6057E+00  0.1909E+02
      6.283  0.4724E+00  0.1912E+02
      6.356  0.4652E+00  0.1915E+02
      6.428  0.6655E+00  0.1920E+02
      6.501  0.1170E+01  0.1929E+02
      6.573  0.1102E+01  0.1937E+02
      6.646  0.9855E+00  0.1944E+02
      6.719  0.1052E+01  0.1951E+02
      6.791  0.1294E+01  0.1961E+02
      6.864  0.1159E+01  0.1969E+02
      6.936  0.5847E+00  0.1973E+02
      7.009  0.5946E+00  0.1978E+02
      7.081  0.5548E+00  0.1982E+02
      7.154  0.3677E+00  0.1984E+02
      7.226  0.2582E+00  0.1986E+02
      7.299  0.4053E+00  0.1989E+02
      7.371  0.3191E+00  0.1992E+02
      7.444  0.4271E+00  0.1995E+02
      7.517  0.3514E+00  0.1997E+02
      7.589  0.3758E+00  0.2000E+02
      7.662  0.3958E+00  0.2003E+02
      7.734  0.5644E+00  0.2007E+02
      7.807  0.5504E+00  0.2011E+02
      7.879  0.5207E+00  0.2015E+02
      7.952  0.5374E+00  0.2019E+02
      8.024  0.4711E+00  0.2022E+02
      8.097  0.3915E+00  0.2025E+02
      8.170  0.9111E+00  0.2031E+02
      8.242  0.7762E+00  0.2037E+02
      8.315  0.9461E+00  0.2044E+02
      8.387  0.1031E+01  0.2051E+02
      8.460  0.9269E+00  0.2058E+02
      8.532  0.8336E+00  0.2064E+02
      8.605  0.7352E+00  0.2070E+02
      8.677  0.6969E+00  0.2075E+02
      8.750  0.1143E+01  0.2083E+02
      8.823  0.8247E+00  0.2089E+02
      8.895  0.2982E+00  0.2091E+02
      8.968  0.8346E-01  0.2092E+02
      9.040  0.1194E+00  0.2093E+02
      9.113  0.1111E+00  0.2093E+02
      9.185  0.1026E+00  0.2094E+02
      9.258  0.1543E+00  0.2095E+02
      9.330  0.1246E+00  0.2096E+02
      9.403  0.3438E+00  0.2099E+02
      9.475  0.2000E+00  0.2100E+02
      9.548 -0.8744E-02  0.2100E+02
      9.621 -0.1971E-03  0.2100E+02
      9.693 -0.3423E-07  0.2100E+02
      9.766 -0.7941E-13  0.2100E+02
      9.838  0.0000E+00  0.2100E+02
      9.911  0.0000E+00  0.2100E+02
      9.983  0.0000E+00  0.2100E+02
     10.056  0.0000E+00  0.2100E+02
     10.128  0.0000E+00  0.2100E+02
     10.201  0.0000E+00  0.2100E+02
     10.274  0.0000E+00  0.2100E+02
     10.346  0.0000E+00  0.2100E+02
     10.419  0.0000E+00  0.2100E+02
     10.41864220    -11.34669505  301      4.16574846      1.00000000
    -11.347  0.0000E+00  0.0000E+00  0.0000E+00  0.0000E+00  0.0000E+00  0.0000E+00  0.0000E+00  0.0000E+00  0.0000E+00  0.0000E+00  0.0000E+00  0.0000E+00  0.0000E+00  0.0000E+00  0.0000E+00  0.0000E+00  0.0000E+00  0.0000E+00  0.0000E+00  0.0000E+00  0.0000E+00  0.0000E+00  0.0000E+00  0.0000E+00  0.0000E+00  0.0000E+00  0.0000E+00  0.0000E+00  0.0000E+00  0.0000E+00  0.0000E+00  0.0000E+00  0.0000E+00  0.0000E+00  0.0000E+00  0.0000E+00
    -11.274  0.0000E+00  0.0000E+00  0.0000E+00  0.0000E+00  0.0000E+00  0.0000E+00  0.0000E+00  0.0000E+00  0.0000E+00  0.0000E+00  0.0000E+00  0.0000E+00  0.0000E+00  0.0000E+00  0.0000E+00  0.0000E+00  0.0000E+00  0.0000E+00  0.0000E+00  0.0000E+00  0.0000E+00  0.0000E+00  0.0000E+00  0.0000E+00  0.0000E+00  0.0000E+00  0.0000E+00  0.0000E+00  0.0000E+00  0.0000E+00  0.0000E+00  0.0000E+00  0.0000E+00  0.0000E+00  0.0000E+00  0.0000E+00
    -11.202  0.0000E+00  0.0000E+00  0.0000E+00  0.0000E+00  0.0000E+00  0.0000E+00  0.0000E+00  0.0000E+00  0.0000E+00  0.0000E+00  0.0000E+00  0.0000E+00  0.0000E+00  0.0000E+00  0.0000E+00  0.0000E+00  0.0000E+00  0.0000E+00  0.0000E+00  0.0000E+00  0.0000E+00  0.0000E+00  0.0000E+00  0.0000E+00  0.0000E+00  0.0000E+00  0.0000E+00  0.0000E+00  0.0000E+00  0.0000E+00  0.0000E+00  0.0000E+00  0.0000E+00  0.0000E+00  0.0000E+00  0.0000E+00
    -11.129  0.0000E+00  0.0000E+00  0.0000E+00  0.0000E+00  0.0000E+00  0.0000E+00  0.0000E+00  0.0000E+00  0.0000E+00  0.0000E+00  0.0000E+00  0.0000E+00  0.0000E+00  0.0000E+00  0.0000E+00  0.0000E+00  0.0000E+00  0.0000E+00  0.0000E+00  0.0000E+00  0.0000E+00  0.0000E+00  0.0000E+00  0.0000E+00  0.0000E+00  0.0000E+00  0.0000E+00  0.0000E+00  0.0000E+00  0.0000E+00  0.0000E+00  0.0000E+00  0.0000E+00  0.0000E+00  0.0000E+00  0.0000E+00
    -11.056  0.0000E+00  0.0000E+00  0.0000E+00  0.0000E+00  0.0000E+00  0.0000E+00  0.0000E+00  0.0000E+00  0.0000E+00  0.0000E+00  0.0000E+00  0.0000E+00  0.0000E+00  0.0000E+00  0.0000E+00  0.0000E+00  0.0000E+00  0.0000E+00  0.0000E+00  0.0000E+00  0.0000E+00  0.0000E+00  0.0000E+00  0.0000E+00  0.0000E+00  0.0000E+00  0.0000E+00  0.0000E+00  0.0000E+00  0.0000E+00  0.0000E+00  0.0000E+00  0.0000E+00  0.0000E+00  0.0000E+00  0.0000E+00
    -10.984  0.0000E+00  0.0000E+00  0.0000E+00  0.0000E+00  0.0000E+00  0.0000E+00  0.0000E+00  0.0000E+00  0.0000E+00  0.0000E+00  0.0000E+00  0.0000E+00  0.0000E+00  0.0000E+00  0.0000E+00  0.0000E+00  0.0000E+00  0.0000E+00  0.0000E+00  0.0000E+00  0.0000E+00  0.0000E+00  0.0000E+00  0.0000E+00  0.0000E+00  0.0000E+00  0.0000E+00  0.0000E+00  0.0000E+00  0.0000E+00  0.0000E+00  0.0000E+00  0.0000E+00  0.0000E+00  0.0000E+00  0.0000E+00
    -10.911  0.0000E+00  0.0000E+00  0.0000E+00  0.0000E+00  0.0000E+00  0.0000E+00  0.0000E+00  0.0000E+00  0.0000E+00  0.0000E+00  0.0000E+00  0.0000E+00  0.0000E+00  0.0000E+00  0.0000E+00  0.0000E+00  0.0000E+00  0.0000E+00  0.0000E+00  0.0000E+00  0.0000E+00  0.0000E+00  0.0000E+00  0.0000E+00  0.0000E+00  0.0000E+00  0.0000E+00  0.0000E+00  0.0000E+00  0.0000E+00  0.0000E+00  0.0000E+00  0.0000E+00  0.0000E+00  0.0000E+00  0.0000E+00
    -10.839  0.0000E+00  0.0000E+00  0.0000E+00  0.0000E+00  0.0000E+00  0.0000E+00  0.0000E+00  0.0000E+00  0.0000E+00  0.0000E+00  0.0000E+00  0.0000E+00  0.0000E+00  0.0000E+00  0.0000E+00  0.0000E+00  0.0000E+00  0.0000E+00  0.0000E+00  0.0000E+00  0.0000E+00  0.0000E+00  0.0000E+00  0.0000E+00  0.0000E+00  0.0000E+00  0.0000E+00  0.0000E+00  0.0000E+00  0.0000E+00  0.0000E+00  0.0000E+00  0.0000E+00  0.0000E+00  0.0000E+00  0.0000E+00
    -10.766 -0.5162E-33  0.1983E-33  0.5757E-34  0.1053E-33 -0.2553E-31  0.2536E-31 -0.9975E-33 -0.5560E-33 -0.2101E-31  0.2071E-31 -0.1062E-32 -0.8211E-33 -0.4218E-33  0.3558E-33 -0.1673E-33 -0.2249E-34 -0.8524E-29  0.8415E-29 -0.3981E-30 -0.2896E-30 -0.2017E-30  0.7573E-31 -0.8399E-31 -0.4582E-32 -0.1978E-29 -0.1877E-29 -0.1651E-30  0.1332E-30 -0.9798E-29  0.9750E-29 -0.3454E-30 -0.2060E-30 -0.4872E-29 -0.4813E-29  0.2232E-30 -0.1561E-30
    -10.694 -0.1376E-23  0.6580E-24  0.6223E-25  0.2325E-24 -0.5772E-22  0.5721E-22 -0.2598E-23 -0.1361E-23 -0.4702E-22  0.4609E-22 -0.3034E-23 -0.2006E-23 -0.1293E-23  0.1077E-23 -0.5541E-24 -0.6615E-25 -0.1918E-19  0.1884E-19 -0.1149E-20 -0.7128E-21 -0.6160E-21  0.2451E-21 -0.2795E-21 -0.1347E-22 -0.4546E-20 -0.4232E-20 -0.4288E-21  0.3305E-21 -0.2219E-19  0.2204E-19 -0.9047E-21 -0.5106E-21 -0.1099E-19 -0.1081E-19  0.6423E-21 -0.3851E-21
    -10.621 -0.5425E-16  0.3111E-16 -0.1994E-17  0.6760E-17 -0.1832E-14  0.1808E-14 -0.9775E-16 -0.4745E-16 -0.1473E-14  0.1432E-14 -0.1246E-15 -0.6974E-16 -0.5717E-16  0.4709E-16 -0.2595E-16 -0.2887E-17 -0.6056E-12  0.5900E-12 -0.4771E-13 -0.2506E-13 -0.2731E-13  0.1141E-13 -0.1306E-13 -0.5863E-15 -0.1480E-12 -0.1335E-12 -0.1613E-13  0.1177E-13 -0.7067E-12  0.6993E-12 -0.3439E-13 -0.1815E-13 -0.3484E-12 -0.3399E-12  0.2668E-13 -0.1359E-13
    -10.549 -0.3332E-10  0.2207E-10 -0.4454E-11  0.2301E-11 -0.8408E-09  0.8204E-09 -0.5482E-10 -0.2437E-10 -0.6607E-09  0.6343E-09 -0.7498E-10 -0.3563E-10 -0.3755E-10  0.3066E-10 -0.1765E-10 -0.1976E-11 -0.2751E-06  0.2646E-06 -0.2917E-07 -0.1305E-07 -0.1833E-07  0.7953E-08 -0.8797E-08 -0.3974E-09 -0.7102E-07 -0.6041E-07 -0.9128E-08  0.6256E-08 -0.3266E-06  0.3193E-06 -0.1967E-07 -0.9628E-08 -0.1593E-06 -0.1534E-06  0.1638E-07 -0.7114E-08
    -10.476 -0.3119E-06  0.2242E-06 -0.7500E-07 -0.7596E-09 -0.5101E-05  0.4739E-05 -0.4177E-06 -0.1692E-06 -0.3763E-05  0.3536E-05 -0.5911E-06 -0.2444E-06 -0.3403E-06  0.2745E-06 -0.1598E-06 -0.2064E-07 -0.1611E-02  0.1508E-02 -0.2369E-03 -0.9293E-04 -0.1813E-03  0.8134E-04 -0.7827E-04 -0.4134E-05 -0.4810E-03 -0.3430E-03 -0.7159E-04  0.4656E-04 -0.2026E-02  0.1866E-02 -0.1566E-03 -0.7145E-04 -0.9463E-03 -0.8838E-03  0.1347E-03 -0.5120E-04
    -10.404 -0.4255E-04  0.2156E-04 -0.1138E-04 -0.3299E-05 -0.2191E-03  0.1040E-03 -0.2146E-04 -0.7688E-05 -0.1020E-03  0.7640E-04 -0.2767E-04 -0.1056E-04 -0.3168E-04  0.2125E-04 -0.1174E-04 -0.2931E-05 -0.5531E-01  0.3661E-01 -0.1218E-01 -0.4425E-02 -0.2822E-01  0.1261E-01 -0.7060E-02 -0.1093E-02 -0.3949E-01 -0.2351E-02 -0.3049E-02  0.3059E-02 -0.1047E+00  0.4314E-01 -0.9675E-02 -0.4216E-02 -0.3568E-01 -0.2248E-01  0.7261E-02 -0.2473E-02
    -10.331  0.6183E-03 -0.4386E-03  0.2139E-03  0.5886E-04  0.5058E-02 -0.3329E-02  0.4997E-03  0.1897E-03  0.2754E-02 -0.2475E-02  0.6511E-03  0.2622E-03  0.4911E-03 -0.4254E-03  0.2381E-03  0.4463E-04  0.1163E+01 -0.1134E+01  0.2911E+00  0.1105E+00  0.2140E+00 -0.2085E+00  0.1183E+00  0.1179E-01  0.5650E+00  0.1710E+00  0.9177E-01 -0.6402E-01  0.2081E+01 -0.1347E+01  0.2196E+00  0.9555E-01  0.6855E+00  0.6857E+00 -0.1738E+00  0.6153E-01
    -10.258  0.4562E-02 -0.1952E-03  0.2107E-03  0.1202E-04  0.8318E-02  0.9192E-03  0.3283E-04 -0.5342E-04  0.4411E-02  0.2277E-03  0.1047E-03 -0.3915E-04  0.3172E-02 -0.6281E-03  0.3299E-03  0.2685E-03  0.5618E+01  0.2311E+00 -0.1359E+00 -0.8395E-01  0.6091E+01 -0.9685E+00  0.6080E+00  0.1941E+00  0.5238E+01 -0.6621E+00 -0.3362E+00 -0.9376E-01  0.7659E+01  0.3514E+00 -0.1641E-01  0.1131E-01  0.4195E+01 -0.1947E+00  0.1123E+00 -0.4948E-01
    -10.186  0.7381E-03  0.9037E-04 -0.3449E-04 -0.2738E-04  0.7235E-03  0.4004E-03 -0.5188E-04 -0.7550E-05  0.1177E-02  0.2432E-03  0.1609E-03 -0.2234E-04  0.1278E-02  0.5328E-04 -0.3982E-03 -0.6627E-04  0.5061E+01  0.9050E+00 -0.1046E+00 -0.4119E-01  0.4997E+01  0.1357E+01 -0.7850E+00 -0.2092E+00  0.3158E+01  0.4804E+00  0.2902E+00  0.2028E+00  0.3111E+01  0.1060E+01 -0.2568E+00 -0.1017E+00  0.4373E+01 -0.8023E+00  0.1462E+00 -0.8614E-02
    -10.113 -0.4172E-04 -0.1797E-05  0.7585E-06  0.1007E-05 -0.5466E-04 -0.2054E-04  0.1786E-06  0.4615E-06 -0.5590E-04 -0.1353E-04 -0.7628E-05  0.3516E-06 -0.5322E-04  0.5816E-05  0.1387E-04 -0.1571E-07 -0.1755E+00 -0.4188E-01 -0.1076E-01 -0.4039E-02 -0.1407E+00  0.2741E-01  0.2415E-01  0.9535E-03 -0.9663E-01  0.3320E-01 -0.2028E-01  0.1726E-02 -0.1316E+00 -0.4918E-01 -0.5199E-02 -0.2279E-02 -0.1443E+00  0.3768E-01  0.7267E-02 -0.4215E-02
    -10.041 -0.6023E-06 -0.9690E-07  0.1087E-07  0.1694E-07 -0.5767E-06 -0.2274E-06  0.9261E-07 -0.1375E-07 -0.1226E-05 -0.4473E-08 -0.1613E-06  0.2869E-07 -0.1470E-05 -0.3152E-06  0.4627E-06  0.1669E-06 -0.6794E-02 -0.6641E-03  0.7663E-03  0.2963E-03 -0.8196E-02 -0.5018E-02  0.1112E-02  0.5380E-03 -0.4951E-02 -0.2805E-02  0.9205E-04 -0.6466E-03 -0.3484E-02 -0.8312E-03  0.9451E-03  0.3878E-03 -0.6163E-02  0.5770E-03 -0.7348E-03  0.2134E-03
     -9.968 -0.1219E-09 -0.3846E-10  0.4068E-11  0.4101E-11 -0.1202E-09 -0.1985E-10  0.4257E-10  0.1232E-11 -0.2558E-09  0.4899E-10 -0.1560E-10  0.1416E-10 -0.3397E-09 -0.1408E-09  0.9105E-10  0.4522E-10 -0.1592E-05  0.8028E-07  0.3051E-06  0.1177E-06 -0.2364E-05 -0.1838E-05  0.2554E-06  0.1601E-06 -0.1484E-05 -0.1110E-05  0.1375E-06 -0.2183E-06 -0.8870E-06  0.4588E-09  0.3605E-06  0.1462E-06 -0.1450E-05 -0.8079E-07 -0.2783E-06  0.8954E-07
     -9.896 -0.3401E-15 -0.1583E-15  0.1560E-16  0.1270E-16 -0.4088E-15  0.1013E-16  0.1911E-15  0.1430E-16 -0.7562E-15  0.2893E-15 -0.1033E-16  0.6203E-16 -0.1110E-14 -0.6324E-15  0.2736E-15  0.1608E-15 -0.5191E-11  0.9080E-12  0.1299E-11  0.4924E-12 -0.8976E-11 -0.7773E-11  0.8748E-12  0.6013E-12 -0.5853E-11 -0.4821E-11  0.7295E-12 -0.8747E-12 -0.3265E-11  0.5117E-12  0.1565E-11  0.6170E-12 -0.4709E-11 -0.8477E-12 -0.1168E-11  0.3796E-12
     -9.823 -0.4560E-13 -0.4135E-13  0.1255E-13  0.6040E-14 -0.1644E-11 -0.1638E-11  0.3856E-13  0.6340E-13 -0.1477E-11 -0.1455E-11  0.1045E-12  0.3342E-13 -0.1747E-12  0.1157E-12  0.5912E-13  0.3749E-13 -0.3686E-09 -0.3634E-09  0.2299E-10 -0.1171E-10 -0.2047E-09  0.1984E-09  0.1950E-10  0.1178E-10 -0.1346E-09  0.1282E-09  0.1344E-10  0.5812E-11 -0.3735E-09 -0.3703E-09 -0.1709E-10  0.1389E-10 -0.3384E-10  0.3165E-10 -0.1894E-11  0.5834E-11
     -9.751 -0.4126E-08 -0.3605E-08  0.1440E-08  0.5491E-09 -0.9350E-07 -0.9300E-07  0.2809E-08  0.4115E-08 -0.8382E-07 -0.8142E-07  0.8936E-08  0.2159E-08 -0.1152E-07  0.5725E-08  0.5122E-08  0.2511E-08 -0.2129E-04 -0.2072E-04  0.2019E-05 -0.7767E-06 -0.1207E-04  0.1141E-04  0.1725E-05  0.7953E-06 -0.7743E-05  0.7081E-05  0.9681E-06  0.3740E-06 -0.2148E-04 -0.2116E-04 -0.1427E-05  0.9290E-06 -0.1935E-05  0.1738E-05 -0.2124E-06  0.3807E-06
     -9.678 -0.5410E-05 -0.4499E-05  0.2347E-05  0.7413E-06 -0.6065E-04 -0.6000E-04  0.2616E-05  0.3215E-05 -0.5377E-04 -0.5071E-04  0.9642E-05  0.1667E-05 -0.9798E-05  0.2454E-05  0.5807E-05  0.2119E-05 -0.1430E-01 -0.1353E-01  0.2305E-02 -0.6415E-03 -0.8528E-02  0.7622E-02  0.2005E-02  0.6863E-03 -0.5192E-02  0.4288E-02  0.8968E-03  0.2836E-03 -0.1440E-01 -0.1394E-01 -0.1569E-02  0.7814E-03 -0.1285E-02  0.1052E-02 -0.2716E-03  0.3022E-03
     -9.605 -0.9370E-05  0.1595E-04  0.1777E-05 -0.4874E-07  0.7734E-03  0.8527E-03 -0.3099E-04 -0.4092E-04  0.7867E-03  0.7594E-03 -0.1135E-03 -0.2132E-04  0.1047E-03 -0.4894E-04 -0.5989E-04 -0.2111E-04  0.1802E+00  0.1888E+00 -0.2172E-01  0.6841E-02  0.9353E-01 -0.1029E+00 -0.1823E-01 -0.6120E-02  0.5783E-01 -0.6346E-01 -0.1001E-01 -0.3982E-02  0.1638E+00  0.1913E+00  0.1449E-01 -0.8255E-02  0.1289E-01 -0.1664E-01  0.3200E-02 -0.3595E-02
     -9.533  0.1714E-02  0.1279E-02 -0.8384E-03 -0.2608E-03  0.6957E-02  0.5801E-02 -0.3720E-03 -0.4098E-03  0.4604E-02  0.4173E-02 -0.1403E-02 -0.2049E-03  0.1440E-02  0.3029E-04 -0.1021E-02 -0.3556E-03  0.1577E+01  0.1360E+01 -0.4268E+00  0.1035E+00  0.1101E+01 -0.8369E+00 -0.3994E+00 -0.1294E+00  0.7030E+00 -0.3714E+00 -0.1474E+00 -0.2235E-01  0.1831E+01  0.1488E+01  0.3020E+00 -0.1302E+00  0.1346E+00 -0.1211E+00  0.6260E-01 -0.4576E-01
     -9.460  0.6940E-02  0.4093E-03 -0.3971E-03  0.3118E-04  0.8455E-02 -0.1665E-02 -0.1368E-04  0.1938E-03  0.3208E-02 -0.1431E-04 -0.4417E-03 -0.1021E-04  0.2717E-02 -0.5391E-05  0.3701E-03 -0.2429E-03  0.3735E+01  0.4490E-01 -0.1939E+00  0.5399E-02  0.3842E+01  0.9787E-01  0.1574E+00 -0.6024E-01  0.1121E+01  0.2407E+00  0.1731E+00 -0.1099E+00  0.5215E+01 -0.6340E+00  0.9486E-02  0.6374E-01  0.1135E+01  0.8634E+00 -0.3683E+00  0.7055E-01
     -9.388  0.2847E-02 -0.6141E-03  0.4986E-03  0.1748E-03  0.3099E-02 -0.1901E-02 -0.2987E-03  0.7650E-04  0.3111E-02 -0.1817E-02  0.6398E-03 -0.7751E-04  0.2826E-02  0.1089E-02  0.3840E-03  0.2193E-03  0.5113E+01 -0.1696E+01  0.5255E+00 -0.2241E+00  0.5306E+01  0.1708E+01  0.3209E+00  0.2247E+00  0.7788E+01  0.1222E+01 -0.6854E-01 -0.9715E-01  0.4056E+01 -0.1338E+01 -0.6477E+00 -0.1927E-01  0.8480E+01  0.1518E+01 -0.5479E+00 -0.5972E-01
     -9.315  0.8581E-03 -0.1929E-04 -0.6083E-04 -0.2733E-04  0.7470E-03  0.1092E-03 -0.7538E-04 -0.2376E-04  0.1258E-02 -0.3267E-04 -0.2746E-04 -0.1605E-04  0.1737E-02  0.5225E-03 -0.1031E-05  0.2797E-04  0.4450E+01  0.6545E-01  0.1023E+00  0.1334E+00  0.5383E+01 -0.1060E+01 -0.1159E-01 -0.1897E-01  0.8779E+01 -0.1016E+01  0.3117E-01  0.1859E+00  0.2273E+01  0.2205E+00  0.3951E+00  0.9538E-01  0.8462E+01 -0.1986E+01  0.7620E+00  0.4146E-01
     -9.243 -0.5085E-04  0.1794E-05  0.8553E-06  0.4498E-06 -0.3491E-04  0.2068E-05  0.5173E-05  0.1834E-05 -0.5205E-04  0.1297E-04 -0.2727E-05  0.7148E-06 -0.7353E-04 -0.3718E-04 -0.6891E-07 -0.3288E-05 -0.1589E+00  0.2703E-01 -0.6146E-02 -0.9977E-03 -0.1626E+00 -0.3428E-01 -0.1951E-02 -0.5136E-02 -0.2720E+00 -0.4003E-01  0.3198E-03 -0.1082E-02 -0.7905E-01  0.1410E-02 -0.2578E-02  0.2171E-02 -0.3132E+00  0.2921E-01 -0.7467E-02  0.3487E-03
     -9.170 -0.4235E-06  0.7316E-07  0.6552E-07  0.2612E-07 -0.9652E-06 -0.1059E-06 -0.2199E-07 -0.4254E-07 -0.1579E-05 -0.2744E-06  0.1334E-06  0.1661E-07 -0.1785E-05  0.2119E-06 -0.5075E-07  0.6001E-07 -0.5827E-02 -0.1323E-02 -0.7184E-04 -0.3175E-03 -0.8305E-02  0.4554E-02  0.9289E-04  0.2862E-03 -0.1301E-01  0.4755E-02 -0.1814E-03 -0.4480E-03 -0.3254E-02 -0.5710E-03 -0.9779E-03 -0.3943E-03 -0.1041E-01  0.4213E-02 -0.1756E-02 -0.1605E-03
     -9.098 -0.4532E-10  0.9463E-11  0.1190E-10  0.5558E-11 -0.2128E-09 -0.2609E-10 -0.5435E-11 -0.1490E-10 -0.3457E-09 -0.1004E-09  0.3059E-10  0.5704E-11 -0.3917E-09  0.1158E-09 -0.1388E-10  0.2025E-10 -0.1303E-05 -0.4308E-06  0.6469E-08 -0.7038E-07 -0.2029E-05  0.1315E-05  0.1778E-07  0.8714E-07 -0.3168E-05  0.1406E-05  0.2066E-07 -0.1260E-06 -0.7500E-06 -0.1158E-06 -0.2194E-06 -0.1051E-06 -0.2235E-05  0.9719E-06 -0.4639E-06 -0.2172E-07
     -9.025 -0.8223E-16  0.1464E-16  0.2804E-16  0.1447E-16 -0.6325E-15 -0.8138E-16 -0.1359E-16 -0.5413E-16 -0.1035E-14 -0.3848E-15  0.8671E-16  0.2119E-16 -0.1192E-14  0.4648E-15 -0.4487E-16  0.7077E-16 -0.3918E-11 -0.1592E-11  0.8336E-13 -0.1868E-12 -0.6371E-11  0.4419E-11  0.3022E-13  0.2981E-12 -0.9973E-11  0.4833E-11  0.2415E-12 -0.4044E-12 -0.2244E-11 -0.2985E-12 -0.6078E-12 -0.3318E-12 -0.6492E-11  0.2856E-11 -0.1493E-11 -0.1814E-13
     -8.953  0.0000E+00  0.0000E+00  0.0000E+00  0.0000E+00  0.0000E+00  0.0000E+00  0.0000E+00  0.0000E+00  0.0000E+00  0.0000E+00  0.0000E+00  0.0000E+00  0.0000E+00  0.0000E+00  0.0000E+00  0.0000E+00  0.0000E+00  0.0000E+00  0.0000E+00  0.0000E+00  0.0000E+00  0.0000E+00  0.0000E+00  0.0000E+00  0.0000E+00  0.0000E+00  0.0000E+00  0.0000E+00  0.0000E+00  0.0000E+00  0.0000E+00  0.0000E+00  0.0000E+00  0.0000E+00  0.0000E+00  0.0000E+00
     -8.880  0.0000E+00  0.0000E+00  0.0000E+00  0.0000E+00  0.0000E+00  0.0000E+00  0.0000E+00  0.0000E+00  0.0000E+00  0.0000E+00  0.0000E+00  0.0000E+00  0.0000E+00  0.0000E+00  0.0000E+00  0.0000E+00  0.0000E+00  0.0000E+00  0.0000E+00  0.0000E+00  0.0000E+00  0.0000E+00  0.0000E+00  0.0000E+00  0.0000E+00  0.0000E+00  0.0000E+00  0.0000E+00  0.0000E+00  0.0000E+00  0.0000E+00  0.0000E+00  0.0000E+00  0.0000E+00  0.0000E+00  0.0000E+00
     -8.807  0.0000E+00  0.0000E+00  0.0000E+00  0.0000E+00  0.0000E+00  0.0000E+00  0.0000E+00  0.0000E+00  0.0000E+00  0.0000E+00  0.0000E+00  0.0000E+00  0.0000E+00  0.0000E+00  0.0000E+00  0.0000E+00  0.0000E+00  0.0000E+00  0.0000E+00  0.0000E+00  0.0000E+00  0.0000E+00  0.0000E+00  0.0000E+00  0.0000E+00  0.0000E+00  0.0000E+00  0.0000E+00  0.0000E+00  0.0000E+00  0.0000E+00  0.0000E+00  0.0000E+00  0.0000E+00  0.0000E+00  0.0000E+00
     -8.735  0.0000E+00  0.0000E+00  0.0000E+00  0.0000E+00  0.0000E+00  0.0000E+00  0.0000E+00  0.0000E+00  0.0000E+00  0.0000E+00  0.0000E+00  0.0000E+00  0.0000E+00  0.0000E+00  0.0000E+00  0.0000E+00  0.0000E+00  0.0000E+00  0.0000E+00  0.0000E+00  0.0000E+00  0.0000E+00  0.0000E+00  0.0000E+00  0.0000E+00  0.0000E+00  0.0000E+00  0.0000E+00  0.0000E+00  0.0000E+00  0.0000E+00  0.0000E+00  0.0000E+00  0.0000E+00  0.0000E+00  0.0000E+00
     -8.662  0.0000E+00  0.0000E+00  0.0000E+00  0.0000E+00  0.0000E+00  0.0000E+00  0.0000E+00  0.0000E+00  0.0000E+00  0.0000E+00  0.0000E+00  0.0000E+00  0.0000E+00  0.0000E+00  0.0000E+00  0.0000E+00  0.0000E+00  0.0000E+00  0.0000E+00  0.0000E+00  0.0000E+00  0.0000E+00  0.0000E+00  0.0000E+00  0.0000E+00  0.0000E+00  0.0000E+00  0.0000E+00  0.0000E+00  0.0000E+00  0.0000E+00  0.0000E+00  0.0000E+00  0.0000E+00  0.0000E+00  0.0000E+00
     -8.590  0.0000E+00  0.0000E+00  0.0000E+00  0.0000E+00  0.0000E+00  0.0000E+00  0.0000E+00  0.0000E+00  0.0000E+00  0.0000E+00  0.0000E+00  0.0000E+00  0.0000E+00  0.0000E+00  0.0000E+00  0.0000E+00  0.0000E+00  0.0000E+00  0.0000E+00  0.0000E+00  0.0000E+00  0.0000E+00  0.0000E+00  0.0000E+00  0.0000E+00  0.0000E+00  0.0000E+00  0.0000E+00  0.0000E+00  0.0000E+00  0.0000E+00  0.0000E+00  0.0000E+00  0.0000E+00  0.0000E+00  0.0000E+00
     -8.517  0.0000E+00  0.0000E+00  0.0000E+00  0.0000E+00  0.0000E+00  0.0000E+00  0.0000E+00  0.0000E+00  0.0000E+00  0.0000E+00  0.0000E+00  0.0000E+00  0.0000E+00  0.0000E+00  0.0000E+00  0.0000E+00  0.0000E+00  0.0000E+00  0.0000E+00  0.0000E+00  0.0000E+00  0.0000E+00  0.0000E+00  0.0000E+00  0.0000E+00  0.0000E+00  0.0000E+00  0.0000E+00  0.0000E+00  0.0000E+00  0.0000E+00  0.0000E+00  0.0000E+00  0.0000E+00  0.0000E+00  0.0000E+00
     -8.445  0.0000E+00  0.0000E+00  0.0000E+00  0.0000E+00  0.0000E+00  0.0000E+00  0.0000E+00  0.0000E+00  0.0000E+00  0.0000E+00  0.0000E+00  0.0000E+00  0.0000E+00  0.0000E+00  0.0000E+00  0.0000E+00  0.0000E+00  0.0000E+00  0.0000E+00  0.0000E+00  0.0000E+00  0.0000E+00  0.0000E+00  0.0000E+00  0.0000E+00  0.0000E+00  0.0000E+00  0.0000E+00  0.0000E+00  0.0000E+00  0.0000E+00  0.0000E+00  0.0000E+00  0.0000E+00  0.0000E+00  0.0000E+00
     -8.372  0.0000E+00  0.0000E+00  0.0000E+00  0.0000E+00  0.0000E+00  0.0000E+00  0.0000E+00  0.0000E+00  0.0000E+00  0.0000E+00  0.0000E+00  0.0000E+00  0.0000E+00  0.0000E+00  0.0000E+00  0.0000E+00  0.0000E+00  0.0000E+00  0.0000E+00  0.0000E+00  0.0000E+00  0.0000E+00  0.0000E+00  0.0000E+00  0.0000E+00  0.0000E+00  0.0000E+00  0.0000E+00  0.0000E+00  0.0000E+00  0.0000E+00  0.0000E+00  0.0000E+00  0.0000E+00  0.0000E+00  0.0000E+00