   2   2   1   0
  0.2779610E+02  0.4283936E-09  0.4283936E-09  0.4283936E-09  0.5000000E-15
  1.000000000000000E-004
  CAR 
 unknown system                          
     10.41303330    -11.35167588  301      4.16207182      1.00000000
    -11.352  0.0000E+00  0.0000E+00
    -11.279  0.0000E+00  0.0000E+00
    -11.207  0.0000E+00  0.0000E+00
    -11.134  0.0000E+00  0.0000E+00
    -11.061  0.0000E+00  0.0000E+00
    -10.989  0.0000E+00  0.0000E+00
    -10.916  0.0000E+00  0.0000E+00
    -10.844  0.0000E+00  0.0000E+00
    -10.771 -0.2720E-28 -0.1973E-29
    -10.699 -0.6159E-19 -0.4468E-20
    -10.626 -0.1963E-11 -0.1424E-12
    -10.554 -0.9084E-06 -0.6591E-07
    -10.481 -0.5599E-02 -0.4063E-03
    -10.409 -0.2803E+00 -0.2074E-01
    -10.336  0.5045E+01  0.3453E+00
    -10.263  0.3016E+02  0.2534E+01
    -10.191  0.2096E+02  0.4054E+01
    -10.118 -0.7221E+00  0.4002E+01
    -10.046 -0.2894E-01  0.4000E+01
     -9.973 -0.7354E-05  0.4000E+01
     -9.901 -0.2564E-10  0.4000E+01
     -9.828 -0.1157E-08  0.4000E+01
     -9.756 -0.6796E-04  0.4000E+01
     -9.683 -0.4678E-01  0.3997E+01
     -9.610  0.5424E+00  0.4036E+01
     -9.538  0.5779E+01  0.4455E+01
     -9.465  0.1587E+02  0.5607E+01
     -9.393  0.3194E+02  0.7924E+01
     -9.320  0.2968E+02  0.1008E+02
     -9.248 -0.1029E+01  0.1000E+02
     -9.175 -0.3988E-01  0.1000E+02
     -9.103 -0.8975E-05  0.1000E+02
     -9.030 -0.2661E-10  0.1000E+02
     -8.958  0.0000E+00  0.1000E+02
     -8.885  0.0000E+00  0.1000E+02
     -8.812  0.0000E+00  0.1000E+02
     -8.740  0.0000E+00  0.1000E+02
     -8.667  0.0000E+00  0.1000E+02
     -8.595  0.0000E+00  0.1000E+02
     -8.522  0.0000E+00  0.1000E+02
     -8.450  0.0000E+00  0.1000E+02
     -8.377  0.0000E+00  0.1000E+02
     -8.305  0.0000E+00  0.1000E+02
     -8.232  0.0000E+00  0.1000E+02
     -8.160  0.0000E+00  0.1000E+02
     -8.087  0.0000E+00  0.1000E+02
     -8.014  0.0000E+00  0.1000E+02
     -7.942  0.0000E+00  0.1000E+02
     -7.869  0.0000E+00  0.1000E+02
     -7.797  0.0000E+00  0.1000E+02
     -7.724 -0.5509E-29  0.1000E+02
     -7.652 -0.1397E-19  0.1000E+02
     -7.579 -0.4941E-12  0.1000E+02
     -7.507 -0.2495E-06  0.1000E+02
     -7.434 -0.1613E-02  0.1000E+02
     -7.361 -0.5864E-01  0.9996E+01
     -7.289  0.1442E+01  0.1010E+02
     -7.216  0.1640E+01  0.1022E+02
     -7.144  0.9277E+00  0.1029E+02
     -7.071  0.7607E+00  0.1034E+02
     -6.999  0.6632E+00  0.1039E+02
     -6.926  0.5996E+00  0.1043E+02
     -6.854  0.5548E+00  0.1047E+02
     -6.781  0.5218E+00  0.1051E+02
     -6.709  0.4967E+00  0.1055E+02
     -6.636  0.4776E+00  0.1058E+02
     -6.563  0.4638E+00  0.1062E+02
     -6.491  0.4534E+00  0.1065E+02
     -6.418  0.4464E+00  0.1068E+02
     -6.346  0.4437E+00  0.1071E+02
     -6.273  0.4453E+00  0.1075E+02
     -6.201  0.4514E+00  0.1078E+02
     -6.128  0.4638E+00  0.1081E+02
     -6.056  0.4876E+00  0.1085E+02
     -5.983  0.5222E+00  0.1089E+02
     -5.910  0.9531E+00  0.1095E+02
     -5.838  0.1706E+01  0.1108E+02
     -5.765  0.9312E+00  0.1115E+02
     -5.693  0.8281E+00  0.1121E+02
     -5.620  0.8137E+00  0.1126E+02
     -5.548  0.8562E+00  0.1133E+02
     -5.475  0.9367E+00  0.1139E+02
     -5.403  0.2255E+01  0.1156E+02
     -5.330  0.5584E+01  0.1196E+02
     -5.258  0.5471E+00  0.1200E+02
     -5.185 -0.4453E-01  0.1200E+02
     -5.112 -0.6777E-04  0.1200E+02
     -5.040 -0.1238E-08  0.1200E+02
     -4.967 -0.2693E-15  0.1200E+02
     -4.895  0.0000E+00  0.1200E+02
     -4.822  0.0000E+00  0.1200E+02
     -4.750  0.0000E+00  0.1200E+02
     -4.677  0.0000E+00  0.1200E+02
     -4.605  0.0000E+00  0.1200E+02
     -4.532  0.0000E+00  0.1200E+02
     -4.460  0.0000E+00  0.1200E+02
     -4.387  0.0000E+00  0.1200E+02
     -4.314  0.0000E+00  0.1200E+02
     -4.242  0.0000E+00  0.1200E+02
     -4.169  0.0000E+00  0.1200E+02
     -4.097  0.0000E+00  0.1200E+02
     -4.024  0.0000E+00  0.1200E+02
     -3.952  0.0000E+00  0.1200E+02
     -3.879  0.0000E+00  0.1200E+02
     -3.807  0.0000E+00  0.1200E+02
     -3.734  0.0000E+00  0.1200E+02
     -3.661  0.0000E+00  0.1200E+02
     -3.589  0.0000E+00  0.1200E+02
     -3.516  0.0000E+00  0.1200E+02
     -3.444  0.0000E+00  0.1200E+02
     -3.371  0.0000E+00  0.1200E+02
     -3.299  0.0000E+00  0.1200E+02
     -3.226  0.0000E+00  0.1200E+02
     -3.154  0.0000E+00  0.1200E+02
     -3.081  0.0000E+00  0.1200E+02
     -3.009  0.0000E+00  0.1200E+02
     -2.936  0.0000E+00  0.1200E+02
     -2.863  0.0000E+00  0.1200E+02
     -2.791  0.0000E+00  0.1200E+02
     -2.718  0.0000E+00  0.1200E+02
     -2.646  0.0000E+00  0.1200E+02
     -2.573  0.0000E+00  0.1200E+02
     -2.501  0.0000E+00  0.1200E+02
     -2.428  0.0000E+00  0.1200E+02
     -2.356  0.0000E+00  0.1200E+02
     -2.283  0.0000E+00  0.1200E+02
     -2.210  0.0000E+00  0.1200E+02
     -2.138  0.0000E+00  0.1200E+02
     -2.065  0.0000E+00  0.1200E+02
     -1.993  0.0000E+00  0.1200E+02
     -1.920 -0.1095E-37  0.1200E+02
     -1.848 -0.7653E-27  0.1200E+02
     -1.775 -0.7551E-18  0.1200E+02
     -1.703 -0.1035E-10  0.1200E+02
     -1.630 -0.2040E-05  0.1200E+02
     -1.558 -0.5330E-02  0.1200E+02
     -1.485 -0.6171E-01  0.1200E+02
     -1.412  0.2711E+01  0.1219E+02
     -1.340  0.3795E+01  0.1247E+02
     -1.267  0.3957E+01  0.1275E+02
     -1.195  0.2930E+01  0.1297E+02
     -1.122  0.6156E+00  0.1301E+02
     -1.050  0.4089E+00  0.1304E+02
     -0.977  0.3640E+00  0.1307E+02
     -0.905  0.3243E+00  0.1309E+02
     -0.832  0.3082E+00  0.1311E+02
     -0.760  0.3055E+00  0.1314E+02
     -0.687  0.2711E+00  0.1316E+02
     -0.614  0.2284E+00  0.1317E+02
     -0.542  0.2631E+00  0.1319E+02
     -0.469  0.2662E+00  0.1321E+02
     -0.397  0.1833E+00  0.1322E+02
     -0.324  0.2359E+00  0.1324E+02
     -0.252  0.2537E+00  0.1326E+02
     -0.179  0.1614E+00  0.1327E+02
     -0.107  0.2364E+00  0.1329E+02
     -0.034  0.2067E+00  0.1330E+02
      0.039  0.1751E+00  0.1332E+02
      0.111  0.2242E+00  0.1333E+02
      0.184  0.1738E+00  0.1334E+02
      0.256  0.1954E+00  0.1336E+02
      0.329  0.1948E+00  0.1337E+02
      0.401  0.1677E+00  0.1339E+02
      0.474  0.2027E+00  0.1340E+02
      0.546  0.1603E+00  0.1341E+02
      0.619  0.1862E+00  0.1342E+02
      0.691  0.2532E+00  0.1344E+02
      0.764  0.9001E+00  0.1351E+02
      0.837  0.5142E+00  0.1355E+02
      0.909  0.6886E+00  0.1360E+02
      0.982  0.1302E+01  0.1369E+02
      1.054  0.8973E+00  0.1376E+02
      1.127  0.1727E+01  0.1388E+02
      1.199  0.1880E+01  0.1402E+02
      1.272  0.2199E+01  0.1418E+02
      1.344  0.1639E+01  0.1430E+02
      1.417  0.1552E+01  0.1441E+02
      1.490  0.1486E+01  0.1452E+02
      1.562  0.1571E+01  0.1463E+02
      1.635  0.2126E+01  0.1478E+02
      1.707  0.3252E+01  0.1502E+02
      1.780  0.1189E+01  0.1511E+02
      1.852  0.1037E+01  0.1518E+02
      1.925  0.8439E+00  0.1524E+02
      1.997  0.9609E+00  0.1531E+02
      2.070  0.8499E+00  0.1537E+02
      2.142  0.1076E+01  0.1545E+02
      2.215  0.8378E+00  0.1551E+02
      2.288  0.1025E+01  0.1559E+02
      2.360  0.7990E+00  0.1565E+02
      2.433  0.9893E+00  0.1572E+02
      2.505  0.8409E+00  0.1578E+02
      2.578  0.9177E+00  0.1584E+02
      2.650  0.9309E+00  0.1591E+02
      2.723  0.9338E+00  0.1598E+02
      2.795  0.9840E+00  0.1605E+02
      2.868  0.1532E+01  0.1616E+02
      2.940  0.1856E+01  0.1630E+02
      3.013  0.1381E+01  0.1640E+02
      3.086  0.1461E+01  0.1650E+02
      3.158  0.2065E+01  0.1665E+02
      3.231  0.1241E+01  0.1674E+02
      3.303  0.1299E+01  0.1684E+02
      3.376  0.1110E+01  0.1692E+02
      3.448  0.1188E+01  0.1700E+02
      3.521  0.1127E+01  0.1709E+02
      3.593  0.1178E+01  0.1717E+02
      3.666  0.1244E+01  0.1726E+02
      3.739  0.1339E+01  0.1736E+02
      3.811  0.1808E+01  0.1749E+02
      3.884  0.1564E+01  0.1760E+02
      3.956  0.1330E+01  0.1770E+02
      4.029  0.1175E+01  0.1779E+02
      4.101  0.1593E+01  0.1790E+02
      4.174  0.1417E+01  0.1800E+02
      4.246 -0.4921E-01  0.1800E+02
      4.319  0.3072E+00  0.1802E+02
      4.391  0.3170E+00  0.1805E+02
      4.464  0.1199E+00  0.1805E+02
      4.537  0.2510E+00  0.1807E+02
      4.609  0.1232E+00  0.1808E+02
      4.682  0.2701E+00  0.1810E+02
      4.754  0.9072E-01  0.1811E+02
      4.827  0.2845E+00  0.1813E+02
      4.899  0.1359E+00  0.1814E+02
      4.972  0.2480E+00  0.1816E+02
      5.044  0.1699E+00  0.1817E+02
      5.117  0.2415E+00  0.1819E+02
      5.190  0.2216E+00  0.1820E+02
      5.262  0.2227E+00  0.1822E+02
      5.335  0.1153E+01  0.1830E+02
      5.407  0.1364E+01  0.1840E+02
      5.480  0.9554E+00  0.1847E+02
      5.552  0.1705E+01  0.1859E+02
      5.625  0.6883E+00  0.1864E+02
      5.697  0.2624E+00  0.1866E+02
      5.770  0.3000E+00  0.1868E+02
      5.842  0.1645E+01  0.1880E+02
      5.915  0.1106E+01  0.1888E+02
      5.988  0.7966E+00  0.1894E+02
      6.060  0.7369E+00  0.1900E+02
      6.133  0.5813E+00  0.1904E+02
      6.205  0.6135E+00  0.1908E+02
      6.278  0.4796E+00  0.1912E+02
      6.350  0.4609E+00  0.1915E+02
      6.423  0.6492E+00  0.1920E+02
      6.495  0.1129E+01  0.1928E+02
      6.568  0.1132E+01  0.1936E+02
      6.640  0.9817E+00  0.1943E+02
      6.713  0.1039E+01  0.1951E+02
      6.786  0.1270E+01  0.1960E+02
      6.858  0.1195E+01  0.1969E+02
      6.931  0.6199E+00  0.1973E+02
      7.003  0.6168E+00  0.1978E+02
      7.076  0.5483E+00  0.1982E+02
      7.148  0.3638E+00  0.1984E+02
      7.221  0.2673E+00  0.1986E+02
      7.293  0.3331E+00  0.1989E+02
      7.366  0.3668E+00  0.1991E+02
      7.439  0.4286E+00  0.1994E+02
      7.511  0.3749E+00  0.1997E+02
      7.584  0.3771E+00  0.2000E+02
      7.656  0.3918E+00  0.2003E+02
      7.729  0.4538E+00  0.2006E+02
      7.801  0.5458E+00  0.2010E+02
      7.874  0.5633E+00  0.2014E+02
      7.946  0.6133E+00  0.2018E+02
      8.019  0.4721E+00  0.2022E+02
      8.091  0.4370E+00  0.2025E+02
      8.164  0.1049E+01  0.2033E+02
      8.237  0.6462E+00  0.2037E+02
      8.309  0.7843E+00  0.2043E+02
      8.382  0.1085E+01  0.2051E+02
      8.454  0.9565E+00  0.2058E+02
      8.527  0.8820E+00  0.2064E+02
      8.599  0.7024E+00  0.2069E+02
      8.672  0.6949E+00  0.2074E+02
      8.744  0.1101E+01  0.2082E+02
      8.817  0.7946E+00  0.2088E+02
      8.890  0.4534E+00  0.2091E+02
      8.962  0.2974E-01  0.2092E+02
      9.035  0.1204E+00  0.2093E+02
      9.107  0.1077E+00  0.2093E+02
      9.180  0.1016E+00  0.2094E+02
      9.252  0.1548E+00  0.2095E+02
      9.325  0.1174E+00  0.2096E+02
      9.397  0.3530E+00  0.2099E+02
      9.470  0.2055E+00  0.2100E+02
      9.542 -0.9113E-02  0.2100E+02
      9.615 -0.1959E-03  0.2100E+02
      9.688 -0.3366E-07  0.2100E+02
      9.760 -0.7802E-13  0.2100E+02
      9.833  0.0000E+00  0.2100E+02
      9.905  0.0000E+00  0.2100E+02
      9.978  0.0000E+00  0.2100E+02
     10.050  0.0000E+00  0.2100E+02
     10.123  0.0000E+00  0.2100E+02
     10.195  0.0000E+00  0.2100E+02
     10.268  0.0000E+00  0.2100E+02
     10.340  0.0000E+00  0.2100E+02
     10.413  0.0000E+00  0.2100E+02
     10.41303330    -11.35167588  301      4.16207182      1.00000000
    -11.352  0.0000E+00  0.0000E+00  0.0000E+00  0.0000E+00  0.0000E+00  0.0000E+00  0.0000E+00  0.0000E+00  0.0000E+00  0.0000E+00  0.0000E+00  0.0000E+00  0.0000E+00  0.0000E+00  0.0000E+00  0.0000E+00  0.0000E+00  0.0000E+00  0.0000E+00  0.0000E+00  0.0000E+00  0.0000E+00  0.0000E+00  0.0000E+00  0.0000E+00  0.0000E+00  0.0000E+00  0.0000E+00  0.0000E+00  0.0000E+00  0.0000E+00  0.0000E+00  0.0000E+00  0.0000E+00  0.0000E+00  0.0000E+00
    -11.279  0.0000E+00  0.0000E+00  0.0000E+00  0.0000E+00  0.0000E+00  0.0000E+00  0.0000E+00  0.0000E+00  0.0000E+00  0.0000E+00  0.0000E+00  0.0000E+00  0.0000E+00  0.0000E+00  0.0000E+00  0.0000E+00  0.0000E+00  0.0000E+00  0.0000E+00  0.0000E+00  0.0000E+00  0.0000E+00  0.0000E+00  0.0000E+00  0.0000E+00  0.0000E+00  0.0000E+00  0.0000E+00  0.0000E+00  0.0000E+00  0.0000E+00  0.0000E+00  0.0000E+00  0.0000E+00  0.0000E+00  0.0000E+00
    -11.207  0.0000E+00  0.0000E+00  0.0000E+00  0.0000E+00  0.0000E+00  0.0000E+00  0.0000E+00  0.0000E+00  0.0000E+00  0.0000E+00  0.0000E+00  0.0000E+00  0.0000E+00  0.0000E+00  0.0000E+00  0.0000E+00  0.0000E+00  0.0000E+00  0.0000E+00  0.0000E+00  0.0000E+00  0.0000E+00  0.0000E+00  0.0000E+00  0.0000E+00  0.0000E+00  0.0000E+00  0.0000E+00  0.0000E+00  0.0000E+00  0.0000E+00  0.0000E+00  0.0000E+00  0.0000E+00  0.0000E+00  0.0000E+00
    -11.134  0.0000E+00  0.0000E+00  0.0000E+00  0.0000E+00  0.0000E+00  0.0000E+00  0.0000E+00  0.0000E+00  0.0000E+00  0.0000E+00  0.0000E+00  0.0000E+00  0.0000E+00  0.0000E+00  0.0000E+00  0.0000E+00  0.0000E+00  0.0000E+00  0.0000E+00  0.0000E+00  0.0000E+00  0.0000E+00  0.0000E+00  0.0000E+00  0.0000E+00  0.0000E+00  0.0000E+00  0.0000E+00  0.0000E+00  0.0000E+00  0.0000E+00  0.0000E+00  0.0000E+00  0.0000E+00  0.0000E+00  0.0000E+00
    -11.061  0.0000E+00  0.0000E+00  0.0000E+00  0.0000E+00  0.0000E+00  0.0000E+00  0.0000E+00  0.0000E+00  0.0000E+00  0.0000E+00  0.0000E+00  0.0000E+00  0.0000E+00  0.0000E+00  0.0000E+00  0.0000E+00  0.0000E+00  0.0000E+00  0.0000E+00  0.0000E+00  0.0000E+00  0.0000E+00  0.0000E+00  0.0000E+00  0.0000E+00  0.0000E+00  0.0000E+00  0.0000E+00  0.0000E+00  0.0000E+00  0.0000E+00  0.0000E+00  0.0000E+00  0.0000E+00  0.0000E+00  0.0000E+00
    -10.989  0.0000E+00  0.0000E+00  0.0000E+00  0.0000E+00  0.0000E+00  0.0000E+00  0.0000E+00  0.0000E+00  0.0000E+00  0.0000E+00  0.0000E+00  0.0000E+00  0.0000E+00  0.0000E+00  0.0000E+00  0.0000E+00  0.0000E+00  0.0000E+00  0.0000E+00  0.0000E+00  0.0000E+00  0.0000E+00  0.0000E+00  0.0000E+00  0.0000E+00  0.0000E+00  0.0000E+00  0.0000E+00  0.0000E+00  0.0000E+00  0.0000E+00  0.0000E+00  0.0000E+00  0.0000E+00  0.0000E+00  0.0000E+00
    -10.916  0.0000E+00  0.0000E+00  0.0000E+00  0.0000E+00  0.0000E+00  0.0000E+00  0.0000E+00  0.0000E+00  0.0000E+00  0.0000E+00  0.0000E+00  0.0000E+00  0.0000E+00  0.0000E+00  0.0000E+00  0.0000E+00  0.0000E+00  0.0000E+00  0.0000E+00  0.0000E+00  0.0000E+00  0.0000E+00  0.0000E+00  0.0000E+00  0.0000E+00  0.0000E+00  0.0000E+00  0.0000E+00  0.0000E+00  0.0000E+00  0.0000E+00  0.0000E+00  0.0000E+00  0.0000E+00  0.0000E+00  0.0000E+00
    -10.844  0.0000E+00  0.0000E+00  0.0000E+00  0.0000E+00  0.0000E+00  0.0000E+00  0.0000E+00  0.0000E+00  0.0000E+00  0.0000E+00  0.0000E+00  0.0000E+00  0.0000E+00  0.0000E+00  0.0000E+00  0.0000E+00  0.0000E+00  0.0000E+00  0.0000E+00  0.0000E+00  0.0000E+00  0.0000E+00  0.0000E+00  0.0000E+00  0.0000E+00  0.0000E+00  0.0000E+00  0.0000E+00  0.0000E+00  0.0000E+00  0.0000E+00  0.0000E+00  0.0000E+00  0.0000E+00  0.0000E+00  0.0000E+00
    -10.771 -0.5178E-33  0.1979E-33  0.5778E-34  0.1058E-33 -0.2537E-31  0.2520E-31 -0.9936E-33 -0.5523E-33 -0.2087E-31  0.2058E-31 -0.1058E-32 -0.8173E-33 -0.4211E-33  0.3551E-33 -0.1672E-33 -0.2242E-34 -0.8571E-29  0.8461E-29 -0.4013E-30 -0.2916E-30 -0.2038E-30  0.7637E-31 -0.8499E-31 -0.4633E-32 -0.1994E-29 -0.1892E-29 -0.1666E-30  0.1342E-30 -0.9853E-29  0.9805E-29 -0.3481E-30 -0.2069E-30 -0.4908E-29 -0.4848E-29  0.2254E-30 -0.1575E-30
    -10.699 -0.1378E-23  0.6566E-24  0.6250E-25  0.2332E-24 -0.5729E-22  0.5677E-22 -0.2585E-23 -0.1350E-23 -0.4666E-22  0.4573E-22 -0.3018E-23 -0.1995E-23 -0.1289E-23  0.1073E-23 -0.5525E-24 -0.6587E-25 -0.1926E-19  0.1892E-19 -0.1156E-20 -0.7170E-21 -0.6214E-21  0.2468E-21 -0.2821E-21 -0.1360E-22 -0.4576E-20 -0.4258E-20 -0.4322E-21  0.3326E-21 -0.2229E-19  0.2214E-19 -0.9107E-21 -0.5124E-21 -0.1106E-19 -0.1087E-19  0.6476E-21 -0.3881E-21
    -10.626 -0.5426E-16  0.3103E-16 -0.1984E-17  0.6776E-17 -0.1817E-14  0.1793E-14 -0.9714E-16 -0.4703E-16 -0.1460E-14  0.1419E-14 -0.1238E-15 -0.6926E-16 -0.5688E-16  0.4685E-16 -0.2582E-16 -0.2872E-17 -0.6076E-12  0.5919E-12 -0.4796E-13 -0.2518E-13 -0.2751E-13  0.1148E-13 -0.1316E-13 -0.5914E-15 -0.1488E-12 -0.1343E-12 -0.1624E-13  0.1183E-13 -0.7091E-12  0.7017E-12 -0.3458E-13 -0.1819E-13 -0.3503E-12 -0.3417E-12  0.2686E-13 -0.1368E-13
    -10.554 -0.3329E-10  0.2201E-10 -0.4443E-11  0.2307E-11 -0.8331E-09  0.8127E-09 -0.5443E-10 -0.2413E-10 -0.6545E-09  0.6283E-09 -0.7439E-10 -0.3536E-10 -0.3732E-10  0.3047E-10 -0.1753E-10 -0.1964E-11 -0.2758E-06  0.2653E-06 -0.2929E-07 -0.1310E-07 -0.1844E-07  0.7990E-08 -0.8847E-08 -0.4006E-09 -0.7139E-07 -0.6068E-07 -0.9182E-08  0.6285E-08 -0.3275E-06  0.3202E-06 -0.1976E-07 -0.9645E-08 -0.1600E-06 -0.1541E-06  0.1647E-07 -0.7157E-08
    -10.481 -0.3114E-06  0.2235E-06 -0.7478E-07 -0.6995E-09 -0.5053E-05  0.4691E-05 -0.4143E-06 -0.1674E-06 -0.3725E-05  0.3500E-05 -0.5857E-06 -0.2424E-06 -0.3378E-06  0.2724E-06 -0.1585E-06 -0.2051E-07 -0.1614E-02  0.1511E-02 -0.2375E-03 -0.9325E-04 -0.1825E-03  0.8176E-04 -0.7862E-04 -0.4172E-05 -0.4837E-03 -0.3441E-03 -0.7194E-04  0.4676E-04 -0.2031E-02  0.1870E-02 -0.1573E-03 -0.7155E-04 -0.9500E-03 -0.8870E-03  0.1353E-03 -0.5147E-04
    -10.409 -0.4257E-04  0.2144E-04 -0.1132E-04 -0.3277E-05 -0.2172E-03  0.1024E-03 -0.2122E-04 -0.7584E-05 -0.1011E-03  0.7543E-04 -0.2732E-04 -0.1044E-04 -0.3153E-04  0.2108E-04 -0.1165E-04 -0.2919E-05 -0.5558E-01  0.3659E-01 -0.1216E-01 -0.4422E-02 -0.2859E-01  0.1273E-01 -0.7137E-02 -0.1112E-02 -0.3991E-01 -0.2269E-02 -0.3016E-02  0.3073E-02 -0.1053E+00  0.4306E-01 -0.9691E-02 -0.4214E-02 -0.3593E-01 -0.2250E-01  0.7256E-02 -0.2475E-02
    -10.336  0.6209E-03 -0.4362E-03  0.2128E-03  0.5842E-04  0.5014E-02 -0.3287E-02  0.4944E-03  0.1872E-03  0.2728E-02 -0.2446E-02  0.6431E-03  0.2593E-03  0.4889E-03 -0.4220E-03  0.2366E-03  0.4461E-04  0.1165E+01 -0.1135E+01  0.2907E+00  0.1104E+00  0.2180E+00 -0.2113E+00  0.1205E+00  0.1232E-01  0.5714E+00  0.1698E+00  0.9085E-01 -0.6439E-01  0.2091E+01 -0.1347E+01  0.2200E+00  0.9549E-01  0.6881E+00  0.6875E+00 -0.1738E+00  0.6156E-01
    -10.263  0.4529E-02 -0.1915E-03  0.2078E-03  0.1150E-04  0.8218E-02  0.9109E-03  0.3205E-04 -0.5323E-04  0.4374E-02  0.2274E-03  0.1055E-03 -0.3893E-04  0.3155E-02 -0.6234E-03  0.3213E-03  0.2653E-03  0.5680E+01  0.2414E+00 -0.1365E+00 -0.8373E-01  0.6151E+01 -0.9626E+00  0.6002E+00  0.1922E+00  0.5280E+01 -0.6620E+00 -0.3328E+00 -0.9258E-01  0.7698E+01  0.3617E+00 -0.1758E-01  0.1106E-01  0.4250E+01 -0.2039E+00  0.1134E+00 -0.4915E-01
    -10.191  0.7174E-03  0.8840E-04 -0.3363E-04 -0.2679E-04  0.6969E-03  0.3899E-03 -0.5032E-04 -0.6877E-05  0.1147E-02  0.2359E-03  0.1590E-03 -0.2155E-04  0.1248E-02  0.5325E-04 -0.3917E-03 -0.6582E-04  0.4998E+01  0.8953E+00 -0.1041E+00 -0.4150E-01  0.4938E+01  0.1356E+01 -0.7798E+00 -0.2081E+00  0.3117E+01  0.4837E+00  0.2872E+00  0.2023E+00  0.3060E+01  0.1050E+01 -0.2564E+00 -0.1017E+00  0.4323E+01 -0.7940E+00  0.1454E+00 -0.9196E-02
    -10.118 -0.4112E-04 -0.1791E-05  0.7329E-06  0.9946E-06 -0.5349E-04 -0.2021E-04  0.2002E-06  0.4151E-06 -0.5544E-04 -0.1320E-04 -0.7664E-05  0.3450E-06 -0.5307E-04  0.5488E-05  0.1400E-04  0.1438E-06 -0.1785E+00 -0.4218E-01 -0.1008E-01 -0.3758E-02 -0.1449E+00  0.2303E-01  0.2488E-01  0.1404E-02 -0.9881E-01  0.3058E-01 -0.2007E-01  0.1167E-02 -0.1320E+00 -0.4948E-01 -0.4401E-02 -0.1942E-02 -0.1474E+00  0.3795E-01  0.6636E-02 -0.3996E-02
    -10.046 -0.5738E-06 -0.9309E-07  0.1049E-07  0.1623E-07 -0.5452E-06 -0.2142E-06  0.8865E-07 -0.1290E-07 -0.1160E-05 -0.2712E-08 -0.1521E-06  0.2756E-07 -0.1391E-05 -0.3008E-06  0.4373E-06  0.1582E-06 -0.6484E-02 -0.6266E-03  0.7356E-03  0.2850E-03 -0.7837E-02 -0.4814E-02  0.1060E-02  0.5143E-03 -0.4737E-02 -0.2694E-02  0.9296E-04 -0.6195E-03 -0.3327E-02 -0.7868E-03  0.9079E-03  0.3722E-03 -0.5883E-02  0.5440E-03 -0.7049E-03  0.2055E-03
     -9.973 -0.1124E-09 -0.3560E-10  0.3774E-11  0.3796E-11 -0.1101E-09 -0.1800E-10  0.3916E-10  0.1142E-11 -0.2341E-09  0.4517E-10 -0.1423E-10  0.1303E-10 -0.3111E-09 -0.1294E-09  0.8332E-10  0.4143E-10 -0.1470E-05  0.7571E-07  0.2825E-06  0.1091E-06 -0.2186E-05 -0.1703E-05  0.2358E-06  0.1479E-06 -0.1373E-05 -0.1028E-05  0.1280E-06 -0.2020E-06 -0.8201E-06  0.1701E-08  0.3342E-06  0.1354E-06 -0.1339E-05 -0.7603E-07 -0.2577E-06  0.8302E-07
     -9.901 -0.3036E-15 -0.1417E-15  0.1399E-16  0.1138E-16 -0.3631E-15  0.9412E-17  0.1701E-15  0.1270E-16 -0.6706E-15  0.2574E-15 -0.9085E-17  0.5521E-16 -0.9850E-15 -0.5622E-15  0.2426E-15  0.1427E-15 -0.4644E-11  0.8161E-12  0.1164E-11  0.4416E-12 -0.8040E-11 -0.6967E-11  0.7824E-12  0.5380E-12 -0.5245E-11 -0.4323E-11  0.6556E-12 -0.7836E-12 -0.2926E-11  0.4611E-12  0.1404E-11  0.5532E-12 -0.4213E-11 -0.7618E-12 -0.1047E-11  0.3406E-12
     -9.828 -0.4329E-13 -0.3926E-13  0.1192E-13  0.5732E-14 -0.1554E-11 -0.1548E-11  0.3634E-13  0.5986E-13 -0.1396E-11 -0.1375E-11  0.9875E-13  0.3148E-13 -0.1655E-12  0.1097E-12  0.5592E-13  0.3543E-13 -0.3526E-09 -0.3476E-09  0.2200E-10 -0.1118E-10 -0.1953E-09  0.1892E-09  0.1865E-10  0.1125E-10 -0.1283E-09  0.1223E-09  0.1279E-10  0.5533E-11 -0.3573E-09 -0.3543E-09 -0.1633E-10  0.1327E-10 -0.3225E-10  0.3016E-10 -0.1806E-11  0.5548E-11
     -9.756 -0.3976E-08 -0.3474E-08  0.1387E-08  0.5290E-09 -0.8973E-07 -0.8925E-07  0.2686E-08  0.3946E-08 -0.8043E-07 -0.7812E-07  0.8573E-08  0.2065E-08 -0.1107E-07  0.5521E-08  0.4917E-08  0.2410E-08 -0.2068E-04 -0.2013E-04  0.1962E-05 -0.7529E-06 -0.1170E-04  0.1105E-04  0.1675E-05  0.7714E-06 -0.7499E-05  0.6860E-05  0.9352E-06  0.3615E-06 -0.2088E-04 -0.2056E-04 -0.1383E-05  0.9017E-06 -0.1873E-05  0.1683E-05 -0.2055E-06  0.3677E-06
     -9.683 -0.5296E-05 -0.4404E-05  0.2296E-05  0.7256E-06 -0.5923E-04 -0.5860E-04  0.2543E-05  0.3135E-05 -0.5250E-04 -0.4952E-04  0.9400E-05  0.1622E-05 -0.9570E-05  0.2422E-05  0.5663E-05  0.2068E-05 -0.1414E-01 -0.1337E-01  0.2276E-02 -0.6325E-03 -0.8410E-02  0.7515E-02  0.1977E-02  0.6771E-03 -0.5117E-02  0.4229E-02  0.8807E-03  0.2789E-03 -0.1424E-01 -0.1379E-01 -0.1546E-02  0.7714E-03 -0.1266E-02  0.1037E-02 -0.2669E-03  0.2969E-03
     -9.610 -0.1094E-04  0.1464E-04  0.2404E-05  0.1438E-06  0.7500E-03  0.8291E-03 -0.2987E-04 -0.3963E-04  0.7647E-03  0.7388E-03 -0.1095E-03 -0.2060E-04  0.1011E-03 -0.4815E-04 -0.5766E-04 -0.2033E-04  0.1768E+00  0.1857E+00 -0.2107E-01  0.6666E-02  0.9106E-01 -0.1009E+00 -0.1767E-01 -0.5935E-02  0.5641E-01 -0.6237E-01 -0.9733E-02 -0.3893E-02  0.1603E+00  0.1882E+00  0.1403E-01 -0.8059E-02  0.1252E-01 -0.1636E-01  0.3122E-02 -0.3502E-02
     -9.538  0.1705E-02  0.1270E-02 -0.8317E-03 -0.2587E-03  0.6895E-02  0.5745E-02 -0.3663E-03 -0.4053E-03  0.4565E-02  0.4138E-02 -0.1389E-02 -0.2021E-03  0.1427E-02  0.2617E-04 -0.1009E-02 -0.3520E-03  0.1583E+01  0.1363E+01 -0.4280E+00  0.1036E+00  0.1104E+01 -0.8376E+00 -0.3998E+00 -0.1296E+00  0.7025E+00 -0.3717E+00 -0.1468E+00 -0.2228E-01  0.1839E+01  0.1493E+01  0.3024E+00 -0.1303E+00  0.1341E+00 -0.1214E+00  0.6250E-01 -0.4561E-01
     -9.465  0.6883E-02  0.4028E-03 -0.3908E-03  0.3176E-04  0.8375E-02 -0.1654E-02 -0.1444E-04  0.1928E-03  0.3190E-02 -0.1596E-04 -0.4383E-03 -0.1063E-04  0.2698E-02 -0.4694E-05  0.3701E-03 -0.2411E-03  0.3754E+01  0.4131E-01 -0.1924E+00  0.4490E-02  0.3860E+01  0.1024E+00  0.1599E+00 -0.6046E-01  0.1121E+01  0.2411E+00  0.1746E+00 -0.1108E+00  0.5239E+01 -0.6406E+00  0.6317E-02  0.6451E-01  0.1140E+01  0.8703E+00 -0.3718E+00  0.7089E-01
     -9.393  0.2827E-02 -0.6061E-03  0.4922E-03  0.1724E-03  0.3061E-02 -0.1869E-02 -0.2996E-03  0.7342E-04  0.3086E-02 -0.1796E-02  0.6335E-03 -0.7780E-04  0.2819E-02  0.1093E-02  0.3759E-03  0.2184E-03  0.5150E+01 -0.1700E+01  0.5265E+00 -0.2233E+00  0.5350E+01  0.1709E+01  0.3186E+00  0.2261E+00  0.7888E+01  0.1226E+01 -0.7261E-01 -0.9461E-01  0.4066E+01 -0.1335E+01 -0.6450E+00 -0.2056E-01  0.8577E+01  0.1500E+01 -0.5400E+00 -0.6130E-01
     -9.320  0.8374E-03 -0.1926E-04 -0.6053E-04 -0.2699E-04  0.7291E-03  0.1085E-03 -0.7212E-04 -0.2278E-04  0.1231E-02 -0.2839E-04 -0.2856E-04 -0.1538E-04  0.1698E-02  0.5055E-03 -0.1146E-05  0.2641E-04  0.4396E+01  0.7492E-01  0.1001E+00  0.1337E+00  0.5325E+01 -0.1070E+01 -0.1228E-01 -0.2067E-01  0.8683E+01 -0.1026E+01  0.3340E-01  0.1846E+00  0.2244E+01  0.2235E+00  0.3962E+00  0.9618E-01  0.8361E+01 -0.1979E+01  0.7594E+00  0.4269E-01
     -9.248 -0.4995E-04  0.1849E-05  0.9164E-06  0.4641E-06 -0.3478E-04  0.1886E-05  0.4965E-05  0.1744E-05 -0.5206E-04  0.1237E-04 -0.2500E-05  0.6973E-06 -0.7304E-04 -0.3596E-04 -0.9447E-07 -0.3133E-05 -0.1611E+00  0.2529E-01 -0.6122E-02 -0.1312E-02 -0.1668E+00 -0.2956E-01 -0.1795E-02 -0.4774E-02 -0.2783E+00 -0.3512E-01 -0.4435E-04 -0.1420E-02 -0.8041E-01  0.6780E-03 -0.3559E-02  0.1755E-02 -0.3170E+00  0.3288E-01 -0.8926E-02  0.1179E-03
     -9.175 -0.4016E-06  0.6974E-07  0.6242E-07  0.2494E-07 -0.9153E-06 -0.1004E-06 -0.2092E-07 -0.4054E-07 -0.1498E-05 -0.2614E-06  0.1269E-06  0.1584E-07 -0.1693E-05  0.2036E-06 -0.4844E-07  0.5720E-07 -0.5573E-02 -0.1269E-02 -0.6737E-04 -0.3039E-03 -0.7951E-02  0.4370E-02  0.8794E-04  0.2744E-03 -0.1245E-01  0.4561E-02 -0.1709E-03 -0.4297E-03 -0.3114E-02 -0.5456E-03 -0.9361E-03 -0.3776E-03 -0.9952E-02  0.4032E-02 -0.1683E-02 -0.1533E-03
     -9.103 -0.4177E-10  0.8727E-11  0.1098E-10  0.5136E-11 -0.1955E-09 -0.2393E-10 -0.4981E-11 -0.1371E-10 -0.3178E-09 -0.9242E-10  0.2815E-10  0.5259E-11 -0.3601E-09  0.1067E-09 -0.1280E-10  0.1863E-10 -0.1208E-05 -0.3994E-06  0.6273E-08 -0.6518E-07 -0.1881E-05  0.1220E-05  0.1627E-07  0.8077E-07 -0.2937E-05  0.1305E-05  0.1967E-07 -0.1169E-06 -0.6948E-06 -0.1070E-06 -0.2032E-06 -0.9735E-07 -0.2070E-05  0.9002E-06 -0.4304E-06 -0.2000E-07
     -9.030 -0.7362E-16  0.1309E-16  0.2512E-16  0.1296E-16 -0.5636E-15 -0.7239E-16 -0.1208E-16 -0.4825E-16 -0.9224E-15 -0.3432E-15  0.7738E-16  0.1893E-16 -0.1063E-14  0.4149E-15 -0.4007E-16  0.6311E-16 -0.3521E-11 -0.1431E-11  0.7561E-13 -0.1677E-12 -0.5730E-11  0.3976E-11  0.2667E-13  0.2679E-12 -0.8967E-11  0.4348E-11  0.2182E-12 -0.3640E-12 -0.2016E-11 -0.2679E-12 -0.5462E-12 -0.2980E-12 -0.5832E-11  0.2566E-11 -0.1343E-11 -0.1592E-13
     -8.958  0.0000E+00  0.0000E+00  0.0000E+00  0.0000E+00  0.0000E+00  0.0000E+00  0.0000E+00  0.0000E+00  0.0000E+00  0.0000E+00  0.0000E+00  0.0000E+00  0.0000E+00  0.0000E+00  0.0000E+00  0.0000E+00  0.0000E+00  0.0000E+00  0.0000E+00  0.0000E+00  0.0000E+00  0.0000E+00  0.0000E+00  0.0000E+00  0.0000E+00  0.0000E+00  0.0000E+00  0.0000E+00  0.0000E+00  0.0000E+00  0.0000E+00  0.0000E+00  0.0000E+00  0.0000E+00  0.0000E+00  0.0000E+00
     -8.885  0.0000E+00  0.0000E+00  0.0000E+00  0.0000E+00  0.0000E+00  0.0000E+00  0.0000E+00  0.0000E+00  0.0000E+00  0.0000E+00  0.0000E+00  0.0000E+00  0.0000E+00  0.0000E+00  0.0000E+00  0.0000E+00  0.0000E+00  0.0000E+00  0.0000E+00  0.0000E+00  0.0000E+00  0.0000E+00  0.0000E+00  0.0000E+00  0.0000E+00  0.0000E+00  0.0000E+00  0.0000E+00  0.0000E+00  0.0000E+00  0.0000E+00  0.0000E+00  0.0000E+00  0.0000E+00  0.0000E+00  0.0000E+00
     -8.812  0.0000E+00  0.0000E+00  0.0000E+00  0.0000E+00  0.0000E+00  0.0000E+00  0.0000E+00  0.0000E+00  0.0000E+00  0.0000E+00  0.0000E+00  0.0000E+00  0.0000E+00  0.0000E+00  0.0000E+00  0.0000E+00  0.0000E+00  0.0000E+00  0.0000E+00  0.0000E+00  0.0000E+00  0.0000E+00  0.0000E+00  0.0000E+00  0.0000E+00  0.0000E+00  0.0000E+00  0.0000E+00  0.0000E+00  0.0000E+00  0.0000E+00  0.0000E+00  0.0000E+00  0.0000E+00  0.0000E+00  0.0000E+00
     -8.740  0.0000E+00  0.0000E+00  0.0000E+00  0.0000E+00  0.0000E+00  0.0000E+00  0.0000E+00  0.0000E+00  0.0000E+00  0.0000E+00  0.0000E+00  0.0000E+00  0.0000E+00  0.0000E+00  0.0000E+00  0.0000E+00  0.0000E+00  0.0000E+00  0.0000E+00  0.0000E+00  0.0000E+00  0.0000E+00  0.0000E+00  0.0000E+00  0.0000E+00  0.0000E+00  0.0000E+00  0.0000E+00  0.0000E+00  0.0000E+00  0.0000E+00  0.0000E+00  0.0000E+00  0.0000E+00  0.0000E+00  0.0000E+00
     -8.667  0.0000E+00  0.0000E+00  0.0000E+00  0.0000E+00  0.0000E+00  0.0000E+00  0.0000E+00  0.0000E+00  0.0000E+00  0.0000E+00  0.0000E+00  0.0000E+00  0.0000E+00  0.0000E+00  0.0000E+00  0.0000E+00  0.0000E+00  0.0000E+00  0.0000E+00  0.0000E+00  0.0000E+00  0.0000E+00  0.0000E+00  0.0000E+00  0.0000E+00  0.0000E+00  0.0000E+00  0.0000E+00  0.0000E+00  0.0000E+00  0.0000E+00  0.0000E+00  0.0000E+00  0.0000E+00  0.0000E+00  0.0000E+00
     -8.595  0.0000E+00  0.0000E+00  0.0000E+00  0.0000E+00  0.0000E+00  0.0000E+00  0.0000E+00  0.0000E+00  0.0000E+00  0.0000E+00  0.0000E+00  0.0000E+00  0.0000E+00  0.0000E+00  0.0000E+00  0.0000E+00  0.0000E+00  0.0000E+00  0.0000E+00  0.0000E+00  0.0000E+00  0.0000E+00  0.0000E+00  0.0000E+00  0.0000E+00  0.0000E+00  0.0000E+00  0.0000E+00  0.0000E+00  0.0000E+00  0.0000E+00  0.0000E+00  0.0000E+00  0.0000E+00  0.0000E+00  0.0000E+00
     -8.522  0.0000E+00  0.0000E+00  0.0000E+00  0.0000E+00  0.0000E+00  0.0000E+00  0.0000E+00  0.0000E+00  0.0000E+00  0.0000E+00  0.0000E+00  0.0000E+00  0.0000E+00  0.0000E+00  0.0000E+00  0.0000E+00  0.0000E+00  0.0000E+00  0.0000E+00  0.0000E+00  0.0000E+00  0.0000E+00  0.0000E+00  0.0000E+00  0.0000E+00  0.0000E+00  0.0000E+00  0.0000E+00  0.0000E+00  0.0000E+00  0.0000E+00  0.0000E+00  0.0000E+00  0.0000E+00  0.0000E+00  0.0000E+00
     -8.450  0.0000E+00  0.0000E+00  0.0000E+00  0.0000E+00  0.0000E+00  0.0000E+00  0.0000E+00  0.0000E+00  0.0000E+00  0.0000E+00  0.0000E+00  0.0000E+00  0.0000E+00  0.0000E+00  0.0000E+00  0.0000E+00  0.0000E+00  0.0000E+00  0.0000E+00  0.0000E+00  0.0000E+00  0.0000E+00  0.0000E+00  0.0000E+00  0.0000E+00  0.0000E+00  0.0000E+00  0.0000E+00  0.0000E+00  0.0000E+00  0.0000E+00  0.0000E+00  0.0000E+00  0.0000E+00  0.0000E+00  0.0000E+00
     -8.377  0.0000E+00  0.0000E+00  0.0000E+00  0.0000E+00  0.0000E+00  0.0000E+00  0.0000E+00  0.0000E+00  0.0000E+00  0.0000E+00  0.0000E+00  0.0000E+00  0.0000E+00  0.0000E+00  0.0000E+00  0.0000E+00  0.0000E+00  0.0000E+00  0.0000E+00  0.0000E+00  0.0000E+00  0.0000E+00  0.0000E+00  0.0000E+00  0.0000E+00  0.0000E+00  0.0000E+00  0.0000E+00  0.0000E+00  0.0000E+00  0.0000E+00  0.0000E+00  0.0000E+00  0.0000E+00  0.0000E+00  0.0000E+00