    2    2    1    1
  0.2779610E+02  0.4283936E-09  0.4283936E-09  0.4283936E-09  0.5000000E-15
  1.000000000000000E-004
  CAR 
 unknown system                          
     18    250     21
 
  0.0000000E+00  0.0000000E+00  0.0000000E+00  0.4000000E-02
    1      -10.267668   1.000000
    2      -10.267668   1.000000
    3      -10.267661   1.000000
    4      -10.267661   1.000000
    5       -9.476856   1.000000
    6       -9.476856   1.000000
    7       -9.390866   1.000000
    8       -9.390866   1.000000
    9       -9.390861   1.000000
   10       -9.390861   1.000000
   11       -7.317183   1.000000
   12       -7.317183   1.000000
   13        3.809923   1.000000
   14        3.809923   1.000000
   15        4.130365   0.963622
   16        4.130365   0.963622
   17        4.130366   0.963616
   18        4.130366   0.963616
   19        4.287491  -0.001563
   20        4.287491  -0.001563
   21        7.802588   0.000000
 
  0.1020408E-01  0.0000000E+00  0.1020408E-01  0.4000000E-02
    1      -10.267949   1.000000
    2      -10.267943   1.000000
    3      -10.267407   1.000000
    4      -10.267401   1.000000
    5       -9.476892   1.000000
    6       -9.476892   1.000000
    7       -9.391211   1.000000
    8       -9.391208   1.000000
    9       -9.390553   1.000000
   10       -9.390549   1.000000
   11       -7.315785   1.000000
   12       -7.315785   1.000000
   13        3.791391   1.000000
   14        3.791392   1.000000
   15        4.067015   1.008582
   16        4.067016   1.008583
   17        4.125404   0.992608
   18        4.125404   0.992605
   19        4.365186  -0.000000
   20        4.365187  -0.000000
   21        7.690264   0.000000
 
  0.2040816E-01  0.0000000E+00  0.2040816E-01  0.4000000E-02
    1      -10.268273   1.000000
    2      -10.268267   1.000000
    3      -10.267140   1.000000
    4      -10.267134   1.000000
    5       -9.476998   1.000000
    6       -9.476998   1.000000
    7       -9.391586   1.000000
    8       -9.391582   1.000000
    9       -9.390272   1.000000
   10       -9.390268   1.000000
   11       -7.311573   1.000000
   12       -7.311573   1.000000
   13        3.730995   1.000000
   14        3.730996   1.000000
   15        3.984545   1.000002
   16        3.984547   1.000002
   17        4.110642   1.032892
   18        4.110642   1.032891
   19        4.495576  -0.000000
   20        4.495576  -0.000000
   21        8.508318   0.000000
 
  0.3061224E-01  0.0000000E+00  0.3061224E-01  0.4000000E-02
    1      -10.268662   1.000000
    2      -10.268656   1.000000
    3      -10.266846   1.000000
    4      -10.266841   1.000000
    5       -9.477176   1.000000
    6       -9.477176   1.000000
    7       -9.391984   1.000000
    8       -9.391980   1.000000
    9       -9.390021   1.000000
   10       -9.390018   1.000000
   11       -7.304554   1.000000
   12       -7.304554   1.000000
   13        3.630057   1.000000
   14        3.630058   1.000000
   15        3.924968   1.000000
   16        3.924970   1.000000
   17        4.086440   1.023559
   18        4.086440   1.023561
   19        4.635511  -0.000000
   20        4.635512  -0.000000
   21        8.217650   0.000000
 
  0.4081633E-01  0.0000000E+00  0.4081633E-01  0.4000000E-02
    1      -10.269133   1.000000
    2      -10.269128   1.000000
    3      -10.266518   1.000000
    4      -10.266513   1.000000
    5       -9.477435   1.000000
    6       -9.477435   1.000000
    7       -9.392405   1.000000
    8       -9.392402   1.000000
    9       -9.389812   1.000000
   10       -9.389808   1.000000
   11       -7.294745   1.000000
   12       -7.294745   1.000000
   13        3.505151   1.000000
   14        3.505152   1.000000
   15        3.878339   1.000000
   16        3.878341   1.000000
   17        4.053355   1.003270
   18        4.053355   1.003272
   19        4.778649  -0.000000
   20        4.778649  -0.000000
   21        8.543667   0.000000
 
  0.5102041E-01  0.0000000E+00  0.5102041E-01  0.4000000E-02
    1      -10.269701   1.000000
    2      -10.269696   1.000000
    3      -10.266143   1.000000
    4      -10.266139   1.000000
    5       -9.477787   1.000000
    6       -9.477787   1.000000
    7       -9.392839   1.000000
    8       -9.392835   1.000000
    9       -9.389627   1.000000
   10       -9.389624   1.000000
   11       -7.282164   1.000000
   12       -7.282164   1.000000
   13        3.369514   1.000000
   14        3.369515   1.000000
   15        3.833805   1.000000
   16        3.833806   1.000000
   17        4.012101   1.000060
   18        4.012101   1.000060
   19        4.922980  -0.000000
   20        4.922980  -0.000000
   21        7.914806   0.000000
 
  0.6122449E-01  0.0000000E+00  0.6122449E-01  0.4000000E-02
    1      -10.270356   1.000000
    2      -10.270352   1.000000
    3      -10.265702   1.000000
    4      -10.265698   1.000000
    5       -9.478204   1.000000
    6       -9.478204   1.000000
    7       -9.393260   1.000000
    8       -9.393256   1.000000
    9       -9.389463   1.000000
   10       -9.389460   1.000000
   11       -7.266831   1.000000
   12       -7.266831   1.000000
   13        3.229122   1.000000
   14        3.229122   1.000000
   15        3.786830   1.000000
   16        3.786831   1.000000
   17        3.963498   1.000000
   18        3.963498   1.000000
   19        5.067499  -0.000000
   20        5.067499  -0.000000
   21        8.230146   0.000000
 
  0.7142857E-01  0.0000000E+00  0.7142857E-01  0.4000000E-02
    1      -10.271119   1.000000
    2      -10.271115   1.000000
    3      -10.265205   1.000000
    4      -10.265201   1.000000
    5       -9.478727   1.000000
    6       -9.478727   1.000000
    7       -9.393667   1.000000
    8       -9.393664   1.000000
    9       -9.389322   1.000000
   10       -9.389319   1.000000
   11       -7.248782   1.000000
   12       -7.248782   1.000000
   13        3.086510   1.000000
   14        3.086510   1.000000
   15        3.735944   1.000000
   16        3.735945   1.000000
   17        3.908409   1.000000
   18        3.908409   1.000000
   19        5.211552  -0.000000
   20        5.211553  -0.000000
   21        7.738139   0.000000
 
  0.8163265E-01  0.0000000E+00  0.8163265E-01  0.4000000E-02
    1      -10.271974   1.000000
    2      -10.271970   1.000000
    3      -10.264646   1.000000
    4      -10.264643   1.000000
    5       -9.479333   1.000000
    6       -9.479332   1.000000
    7       -9.394041   1.000000
    8       -9.394037   1.000000
    9       -9.389199   1.000000
   10       -9.389196   1.000000
   11       -7.228053   1.000000
   12       -7.228053   1.000000
   13        2.942880   1.000000
   14        2.942880   1.000000
   15        3.680902   1.000000
   16        3.680903   1.000000
   17        3.847713   1.000000
   18        3.847713   1.000000
   19        5.354604  -0.000000
   20        5.354605  -0.000000
   21        7.895753   0.000000
 
  0.9183673E-01  0.0000000E+00  0.9183673E-01  0.4000000E-02
    1      -10.272923   1.000000
    2      -10.272920   1.000000
    3      -10.264021   1.000000
    4      -10.264018   1.000000
    5       -9.480027   1.000000
    6       -9.480027   1.000000
    7       -9.394360   1.000000
    8       -9.394356   1.000000
    9       -9.389085   1.000000
   10       -9.389081   1.000000
   11       -7.204683   1.000000
   12       -7.204683   1.000000
   13        2.798873   1.000000
   14        2.798873   1.000000
   15        3.621924   1.000000
   16        3.621925   1.000000
   17        3.782264   1.000000
   18        3.782264   1.000000
   19        5.496169  -0.000000
   20        5.496169  -0.000000
   21        7.423522   0.000000
 
  0.1020408E+00  0.0000000E+00  0.1020408E+00  0.4000000E-02
    1      -10.273960   1.000000
    2      -10.273958   1.000000
    3      -10.263334   1.000000
    4      -10.263331   1.000000
    5       -9.480811   1.000000
    6       -9.480811   1.000000
    7       -9.394610   1.000000
    8       -9.394607   1.000000
    9       -9.388977   1.000000
   10       -9.388974   1.000000
   11       -7.178717   1.000000
   12       -7.178717   1.000000
   13        2.654849   1.000000
   14        2.654849   1.000000
   15        3.559434   1.000000
   16        3.559434   1.000000
   17        3.712868   1.000000
   18        3.712868   1.000000
   19        5.635744   0.000000
   20        5.635745   0.000000
   21        7.877374   0.000000
 
  0.1122449E+00  0.0000000E+00  0.1122449E+00  0.4000000E-02
    1      -10.275099   1.000000
    2      -10.275096   1.000000
    3      -10.262592   1.000000
    4      -10.262589   1.000000
    5       -9.481706   1.000000
    6       -9.481706   1.000000
    7       -9.394788   1.000000
    8       -9.394784   1.000000
    9       -9.388881   1.000000
   10       -9.388877   1.000000
   11       -7.150196   1.000000
   12       -7.150196   1.000000
   13        2.511049   1.000000
   14        2.511050   1.000000
   15        3.493917   1.000000
   16        3.493917   1.000000
   17        3.640265   1.000000
   18        3.640265   1.000000
   19        5.772785   0.000000
   20        5.772785   0.000000
   21        7.379244   0.000000
 
  0.1224490E+00  0.0000000E+00  0.1224490E+00  0.4000000E-02
    1      -10.276342   1.000000
    2      -10.276340   1.000000
    3      -10.261804   1.000000
    4      -10.261801   1.000000
    5       -9.482717   1.000000
    6       -9.482717   1.000000
    7       -9.394896   1.000000
    8       -9.394892   1.000000
    9       -9.388803   1.000000
   10       -9.388800   1.000000
   11       -7.119175   1.000000
   12       -7.119175   1.000000
   13        2.367628   1.000000
   14        2.367628   1.000000
   15        3.425876   1.000000
   16        3.425877   1.000000
   17        3.565130   1.000000
   18        3.565130   1.000000
   19        5.906703   0.000000
   20        5.906703   0.000000
   21        7.246524   0.000000
 
  0.1326531E+00  0.0000000E+00  0.1326531E+00  0.4000000E-02
    1      -10.277656   1.000000
    2      -10.277654   1.000000
    3      -10.260960   1.000000
    4      -10.260958   1.000000
    5       -9.483815   1.000000
    6       -9.483815   1.000000
    7       -9.394879   1.000000
    8       -9.394876   1.000000
    9       -9.388717   1.000000
   10       -9.388714   1.000000
   11       -7.085707   1.000000
   12       -7.085707   1.000000
   13        2.224709   1.000000
   14        2.224709   1.000000
   15        3.355840   1.000000
   16        3.355840   1.000000
   17        3.488092   1.000000
   18        3.488092   1.000000
   19        6.036837   0.000000
   20        6.039607   0.000000
   21        7.689984   0.000000
 
  0.1428571E+00  0.0000000E+00  0.1428571E+00  0.4000000E-02
    1      -10.279052   1.000000
    2      -10.279050   1.000000
    3      -10.260070   1.000000
    4      -10.260068   1.000000
    5       -9.485010   1.000000
    6       -9.485010   1.000000
    7       -9.394751   1.000000
    8       -9.394748   1.000000
    9       -9.388632   1.000000
   10       -9.388628   1.000000
   11       -7.049856   1.000000
   12       -7.049856   1.000000
   13        2.082382   1.000000
   14        2.082383   1.000000
   15        3.284269   1.000000
   16        3.284269   1.000000
   17        3.409692   1.000000
   18        3.409692   1.000000
   19        6.162441   0.000000
   20        6.162449   0.000000
   21        7.720711   0.000000
 
  0.1530612E+00  0.0000000E+00  0.1530612E+00  0.4000000E-02
    1      -10.280522   1.000000
    2      -10.280520   1.000000
    3      -10.259135   1.000000
    4      -10.259133   1.000000
    5       -9.486295   1.000000
    6       -9.486294   1.000000
    7       -9.394505   1.000000
    8       -9.394501   1.000000
    9       -9.388542   1.000000
   10       -9.388538   1.000000
   11       -7.011691   1.000000
   12       -7.011691   1.000000
   13        1.940731   1.000000
   14        1.940731   1.000000
   15        3.211604   1.000000
   16        3.211605   1.000000
   17        3.330420   1.000000
   18        3.330420   1.000000
   19        6.312955   0.000000
   20        6.330239   0.000000
   21        7.591850   0.000000
 
  0.1632653E+00  0.0000000E+00  0.1632653E+00  0.4000000E-02
    1      -10.282061   1.000000
    2      -10.282060   1.000000
    3      -10.258170   1.000000
    4      -10.258168   1.000000
    5       -9.487662   1.000000
    6       -9.487661   1.000000
    7       -9.394140   1.000000
    8       -9.394136   1.000000
    9       -9.388464   1.000000
   10       -9.388460   1.000000
   11       -6.971277   1.000000
   12       -6.971277   1.000000
   13        1.799822   1.000000
   14        1.799822   1.000000
   15        3.138252   1.000000
   16        3.138253   1.000000
   17        3.250711   1.000000
   18        3.250711   1.000000
   19        6.397361   0.000000
   20        6.398225   0.000000
   21        7.020802   0.000000
 
  0.1734694E+00  0.0000000E+00  0.1734694E+00  0.4000000E-02
    1      -10.283666   1.000000
    2      -10.283664   1.000000
    3      -10.257162   1.000000
    4      -10.257160   1.000000
    5       -9.489101   1.000000
    6       -9.489101   1.000000
    7       -9.393653   1.000000
    8       -9.393649   1.000000
    9       -9.388358   1.000000
   10       -9.388354   1.000000
   11       -6.928685   1.000000
   12       -6.928685   1.000000
   13        1.659744   1.000000
   14        1.659744   1.000000
   15        3.064584   1.000000
   16        3.064584   1.000000
   17        3.170950   1.000000
   18        3.170950   1.000000
   19        6.502719   0.000000
   20        6.502987   0.000000
   21        6.913230   0.000000
 
  0.1836735E+00  0.0000000E+00  0.1836735E+00  0.4000000E-02
    1      -10.285327   1.000000
    2      -10.285325   1.000000
    3      -10.256108   1.000000
    4      -10.256106   1.000000
    5       -9.490601   1.000000
    6       -9.490601   1.000000
    7       -9.393044   1.000000
    8       -9.393040   1.000000
    9       -9.388205   1.000000
   10       -9.388201   1.000000
   11       -6.884000   1.000000
   12       -6.884000   1.000000
   13        1.520564   1.000000
   14        1.520564   1.000000
   15        2.990934   1.000000
   16        2.990934   1.000000
   17        3.091477   1.000000
   18        3.091477   1.000000
   19        6.598802   0.000000
   20        6.613873   0.000000
   21        6.849636   0.000000
 
  0.1938776E+00  0.0000000E+00  0.1938776E+00  0.4000000E-02
    1      -10.287042   1.000000
    2      -10.287041   1.000000
    3      -10.255047   1.000000
    4      -10.255046   1.000000
    5       -9.492158   1.000000
    6       -9.492158   1.000000
    7       -9.392346   1.000000
    8       -9.392342   1.000000
    9       -9.388057   1.000000
   10       -9.388053   1.000000
   11       -6.837304   1.000000
   12       -6.837304   1.000000
   13        1.382342   1.000000
   14        1.382343   1.000000
   15        2.917609   1.000000
   16        2.917609   1.000000
   17        3.012598   1.000000
   18        3.012598   1.000000
   19        6.683440   0.000000
   20        6.789366   0.000000
   21        6.798519   0.000000
 
  0.2040816E+00  0.0000000E+00  0.2040816E+00  0.4000000E-02
    1      -10.288804   1.000000
    2      -10.288802   1.000000
    3      -10.253969   1.000000
    4      -10.253967   1.000000
    5       -9.493756   1.000000
    6       -9.493756   1.000000
    7       -9.391572   1.000000
    8       -9.391568   1.000000
    9       -9.387865   1.000000
   10       -9.387861   1.000000
   11       -6.788682   1.000000
   12       -6.788682   1.000000
   13        1.245160   1.000000
   14        1.245161   1.000000
   15        2.844886   1.000000
   16        2.844886   1.000000
   17        2.934583   1.000000
   18        2.934583   1.000000
   19        6.686787   0.000000
   20        6.718058   0.000000
   21        6.806014   0.000000
 
  0.2142857E+00  0.0000000E+00  0.2142857E+00  0.4000000E-02
    1      -10.290609   1.000000
    2      -10.290608   1.000000
    3      -10.252892   1.000000
    4      -10.252890   1.000000
    5       -9.495396   1.000000
    6       -9.495396   1.000000
    7       -9.390778   1.000000
    8       -9.390773   1.000000
    9       -9.387611   1.000000
   10       -9.387606   1.000000
   11       -6.738231   1.000000
   12       -6.738231   1.000000
   13        1.109087   1.000000
   14        1.109088   1.000000
   15        2.773013   1.000000
   16        2.773013   1.000000
   17        2.857672   1.000000
   18        2.857672   1.000000
   19        6.662776   0.000000
   20        6.741005   0.000000
   21        6.872967   0.000000
 
  0.2244898E+00  0.0000000E+00  0.2244898E+00  0.4000000E-02
    1      -10.292440   1.000000
    2      -10.292439   1.000000
    3      -10.251790   1.000000
    4      -10.251789   1.000000
    5       -9.497037   1.000000
    6       -9.497037   1.000000
    7       -9.390008   1.000000
    8       -9.390003   1.000000
    9       -9.387196   1.000000
   10       -9.387191   1.000000
   11       -6.686056   1.000000
   12       -6.686056   1.000000
   13        0.974242   1.000000
   14        0.974242   1.000000
   15        2.702226   1.000000
   16        2.702226   1.000000
   17        2.782085   1.000000
   18        2.782085   1.000000
   19        6.577542   0.000000
   20        6.807476   0.000000
   21        6.915446   0.000000
 
  0.2346939E+00  0.0000000E+00  0.2346939E+00  0.4000000E-02
    1      -10.294294   1.000000
    2      -10.294293   1.000000
    3      -10.250682   1.000000
    4      -10.250681   1.000000
    5       -9.498681   1.000000
    6       -9.498681   1.000000
    7       -9.389368   1.000000
    8       -9.389363   1.000000
    9       -9.386550   1.000000
   10       -9.386545   1.000000
   11       -6.632269   1.000000
   12       -6.632269   1.000000
   13        0.840710   1.000000
   14        0.840710   1.000000
   15        2.632727   1.000000
   16        2.632727   1.000000
   17        2.708015   1.000000
   18        2.708015   1.000000
   19        6.516912   0.000000
   20        6.746148   0.000000
   21        6.963440   0.000000
 
  0.2448980E+00  0.0000000E+00  0.2448980E+00  0.4000000E-02
    1      -10.296163   1.000000
    2      -10.296162   1.000000
    3      -10.249571   1.000000
    4      -10.249571   1.000000
    5       -9.500316   1.000000
    6       -9.500316   1.000000
    7       -9.388905   1.000000
    8       -9.388901   1.000000
    9       -9.385636   1.000000
   10       -9.385633   1.000000
   11       -6.576987   1.000000
   12       -6.576987   1.000000
   13        0.708606   1.000000
   14        0.708606   1.000000
   15        2.564705   1.000000
   16        2.564705   1.000000
   17        2.635636   1.000000
   18        2.635636   1.000000
   19        6.532174   0.000000
   20        6.653130   0.000000
   21        6.998376   0.000000
 
  0.2551020E+00  0.0000000E+00  0.2551020E+00  0.4000000E-02
    1      -10.298039   1.000000
    2      -10.298038   1.000000
    3      -10.248464   1.000000
    4      -10.248463   1.000000
    5       -9.501931   1.000000
    6       -9.501931   1.000000
    7       -9.388580   1.000000
    8       -9.388577   1.000000
    9       -9.384504   1.000000
   10       -9.384502   1.000000
   11       -6.520341   1.000000
   12       -6.520341   1.000000
   13        0.578056   1.000000
   14        0.578056   1.000000
   15        2.498329   1.000000
   16        2.498330   1.000000
   17        2.565105   1.000000
   18        2.565105   1.000000
   19        6.404191   0.000000
   20        6.835733   0.000000
   21        7.021727   0.000000
 
  0.2653061E+00  0.0000000E+00  0.2653061E+00  0.4000000E-02
    1      -10.299915   1.000000
    2      -10.299914   1.000000
    3      -10.247363   1.000000
    4      -10.247362   1.000000
    5       -9.503516   1.000000
    6       -9.503516   1.000000
    7       -9.388334   1.000000
    8       -9.388332   1.000000
    9       -9.383223   1.000000
   10       -9.383222   1.000000
   11       -6.462478   1.000000
   12       -6.462478   1.000000
   13        0.449196   1.000000
   14        0.449196   1.000000
   15        2.433756   1.000000
   16        2.433756   1.000000
   17        2.496563   1.000000
   18        2.496563   1.000000
   19        6.360105   0.000000
   20        6.366352   0.000000
   21        7.510717   0.000000
 
  0.2755102E+00  0.0000000E+00  0.2755102E+00  0.4000000E-02
    1      -10.301788   1.000000
    2      -10.301787   1.000000
    3      -10.246302   1.000000
    4      -10.246301   1.000000
    5       -9.505077   1.000000
    6       -9.505077   1.000000
    7       -9.388178   1.000000
    8       -9.388176   1.000000
    9       -9.381859   1.000000
   10       -9.381858   1.000000
   11       -6.403553   1.000000
   12       -6.403553   1.000000
   13        0.322157   1.000000
   14        0.322157   1.000000
   15        2.371122   1.000000
   16        2.371123   1.000000
   17        2.430137   1.000000
   18        2.430137   1.000000
   19        6.299544   0.000000
   20        7.003071   0.000000
   21        7.037390   0.000000
 
  0.2857143E+00  0.0000000E+00  0.2857143E+00  0.4000000E-02
    1      -10.303651   1.000000
    2      -10.303650   1.000000
    3      -10.245245   1.000000
    4      -10.245244   1.000000
    5       -9.506598   1.000000
    6       -9.506598   1.000000
    7       -9.388012   1.000000
    8       -9.388011   1.000000
    9       -9.380441   1.000000
   10       -9.380440   1.000000
   11       -6.343726   1.000000
   12       -6.343726   1.000000
   13        0.197135   1.000000
   14        0.197135   1.000000
   15        2.310559   1.000000
   16        2.310559   1.000000
   17        2.365944   1.000000
   18        2.365944   1.000000
   19        6.250809   0.000000
   20        6.254062   0.000000
   21        7.030543   0.000000
 
  0.2959184E+00  0.0000000E+00  0.2959184E+00  0.4000000E-02
    1      -10.305481   1.000000
    2      -10.305480   1.000000
    3      -10.244201   1.000000
    4      -10.244200   1.000000
    5       -9.508053   1.000000
    6       -9.508053   1.000000
    7       -9.387850   1.000000
    8       -9.387850   1.000000
    9       -9.378960   1.000000
   10       -9.378959   1.000000
   11       -6.283186   1.000000
   12       -6.283186   1.000000
   13        0.074318   1.000000
   14        0.074318   1.000000
   15        2.252194   1.000000
   16        2.252194   1.000000
   17        2.304097   1.000000
   18        2.304098   1.000000
   19        6.204527   0.000000
   20        6.204554   0.000000
   21        7.015507   0.000000
 
  0.3061224E+00  0.0000000E+00  0.3061224E+00  0.4000000E-02
    1      -10.307281   1.000000
    2      -10.307281   1.000000
    3      -10.243185   1.000000
    4      -10.243184   1.000000
    5       -9.509453   1.000000
    6       -9.509453   1.000000
    7       -9.387698   1.000000
    8       -9.387697   1.000000
    9       -9.377456   1.000000
   10       -9.377456   1.000000
   11       -6.222138   1.000000
   12       -6.222138   1.000000
   13       -0.046096   1.000000
   14       -0.046096   1.000000
   15        2.196130   1.000000
   16        2.196130   1.000000
   17        2.244691   1.000000
   18        2.244691   1.000000
   19        6.160780   0.000000
   20        6.160789   0.000000
   21        6.993500   0.000000
 
  0.3163265E+00  0.0000000E+00  0.3163265E+00  0.4000000E-02
    1      -10.309043   1.000000
    2      -10.309043   1.000000
    3      -10.242196   1.000000
    4      -10.242196   1.000000
    5       -9.510791   1.000000
    6       -9.510791   1.000000
    7       -9.387547   1.000000
    8       -9.387547   1.000000
    9       -9.375943   1.000000
   10       -9.375943   1.000000
   11       -6.160799   1.000000
   12       -6.160799   1.000000
   13       -0.163878   1.000000
   14       -0.163878   1.000000
   15        2.142466   1.000000
   16        2.142467   1.000000
   17        2.187813   1.000000
   18        2.187813   1.000000
   19        6.119615   0.000000
   20        6.119617   0.000000
   21        6.965760   0.000000
 
  0.3265306E+00  0.0000000E+00  0.3265306E+00  0.4000000E-02
    1      -10.310759   1.000000
    2      -10.310759   1.000000
    3      -10.241241   1.000000
    4      -10.241241   1.000000
    5       -9.512064   1.000000
    6       -9.512064   1.000000
    7       -9.387398   1.000000
    8       -9.387398   1.000000
    9       -9.374435   1.000000
   10       -9.374435   1.000000
   11       -6.099413   1.000000
   12       -6.099413   1.000000
   13       -0.278773   1.000000
   14       -0.278773   1.000000
   15        2.091294   1.000000
   16        2.091294   1.000000
   17        2.133544   1.000000
   18        2.133544   1.000000
   19        6.081050   0.000000
   20        6.081061   0.000000
   21        6.933496   0.000000
 
  0.3367347E+00  0.0000000E+00  0.3367347E+00  0.4000000E-02
    1      -10.312421   1.000000
    2      -10.312421   1.000000
    3      -10.240322   1.000000
    4      -10.240322   1.000000
    5       -9.513269   1.000000
    6       -9.513269   1.000000
    7       -9.387251   1.000000
    8       -9.387250   1.000000
    9       -9.372943   1.000000
   10       -9.372943   1.000000
   11       -6.038249   1.000000
   12       -6.038249   1.000000
   13       -0.390500   1.000000
   14       -0.390500   1.000000
   15        2.042698   1.000000
   16        2.042698   1.000000
   17        2.081958   1.000000
   18        2.081958   1.000000
   19        6.045106   0.000000
   20        6.045122   0.000000
   21        6.897848   0.000000
 
  0.3469388E+00  0.0000000E+00  0.3469388E+00  0.4000000E-02
    1      -10.314022   1.000000
    2      -10.314022   1.000000
    3      -10.239441   1.000000
    4      -10.239441   1.000000
    5       -9.514403   1.000000
    6       -9.514403   1.000000
    7       -9.387103   1.000000
    8       -9.387103   1.000000
    9       -9.371479   1.000000
   10       -9.371479   1.000000
   11       -5.977600   1.000000
   12       -5.977600   1.000000
   13       -0.498753   1.000000
   14       -0.498753   1.000000
   15        1.996755   1.000000
   16        1.996755   1.000000
   17        2.033126   1.000000
   18        2.033126   1.000000
   19        6.011781   0.000000
   20        6.011801   0.000000
   21        6.859869   0.000000
 
  0.3571429E+00  0.0000000E+00  0.3571429E+00  0.4000000E-02
    1      -10.315563   1.000000
    2      -10.315563   1.000000
    3      -10.238615   1.000000
    4      -10.238615   1.000000
    5       -9.515477   1.000000
    6       -9.515477   1.000000
    7       -9.386969   1.000000
    8       -9.386969   1.000000
    9       -9.370073   1.000000
   10       -9.370073   1.000000
   11       -5.917798   1.000000
   12       -5.917798   1.000000
   13       -0.603207   1.000000
   14       -0.603207   1.000000
   15        1.953531   1.000000
   16        1.953531   1.000000
   17        1.987104   1.000000
   18        1.987104   1.000000
   19        5.981066   0.000000
   20        5.981158   0.000000
   21        6.820505   0.000000
 
  0.3673469E+00  0.0000000E+00  0.3673469E+00  0.4000000E-02
    1      -10.317022   1.000000
    2      -10.317022   1.000000
    3      -10.237824   1.000000
    4      -10.237824   1.000000
    5       -9.516465   1.000000
    6       -9.516465   1.000000
    7       -9.386828   1.000000
    8       -9.386828   1.000000
    9       -9.368701   1.000000
   10       -9.368701   1.000000
   11       -5.859183   1.000000
   12       -5.859183   1.000000
   13       -0.703476   1.000000
   14       -0.703476   1.000000
   15        1.913102   1.000000
   16        1.913102   1.000000
   17        1.943957   1.000000
   18        1.943958   1.000000
   19        5.952932   0.000000
   20        5.953133   0.000000
   21        6.780614   0.000000
 
  0.3775510E+00  0.0000000E+00  0.3775510E+00  0.4000000E-02
    1      -10.318391   1.000000
    2      -10.318391   1.000000
    3      -10.237070   1.000000
    4      -10.237070   1.000000
    5       -9.517363   1.000000
    6       -9.517363   1.000000
    7       -9.386681   1.000000
    8       -9.386681   1.000000
    9       -9.367373   1.000000
   10       -9.367373   1.000000
   11       -5.802137   1.000000
   12       -5.802137   1.000000
   13       -0.799174   1.000000
   14       -0.799174   1.000000
   15        1.875525   1.000000
   16        1.875525   1.000000
   17        1.903738   1.000000
   18        1.903738   1.000000
   19        5.927348   0.000000
   20        5.927807   0.000000
   21        6.740953   0.000000
 
  0.3877551E+00  0.0000000E+00  0.3877551E+00  0.4000000E-02
    1      -10.319684   1.000000
    2      -10.319684   1.000000
    3      -10.236383   1.000000
    4      -10.236382   1.000000
    5       -9.518205   1.000000
    6       -9.518205   1.000000
    7       -9.386554   1.000000
    8       -9.386554   1.000000
    9       -9.366132   1.000000
   10       -9.366132   1.000000
   11       -5.747074   1.000000
   12       -5.747074   1.000000
   13       -0.889871   1.000000
   14       -0.889871   1.000000
   15        1.840845   1.000000
   16        1.840845   1.000000
   17        1.866483   1.000000
   18        1.866484   1.000000
   19        5.904253   0.000000
   20        5.904708   0.000000
   21        6.702181   0.000000
 
  0.3979592E+00  0.0000000E+00  0.3979592E+00  0.4000000E-02
    1      -10.320885   1.000000
    2      -10.320884   1.000000
    3      -10.235738   1.000000
    4      -10.235737   1.000000
    5       -9.518971   1.000000
    6       -9.518971   1.000000
    7       -9.386412   1.000000