    2    2    1    1
  0.2779610E+02  0.4283936E-09  0.4283936E-09  0.4283936E-09  0.5000000E-15
  1.000000000000000E-004
  CAR 
 unknown system                          
     18    250     21
 
  0.0000000E+00  0.0000000E+00  0.0000000E+00  0.4000000E-02
    1      -10.273227   1.000000
    2      -10.273227   1.000000
    3      -10.273220   1.000000
    4      -10.273220   1.000000
    5       -9.482356   1.000000
    6       -9.482356   1.000000
    7       -9.396427   1.000000
    8       -9.396427   1.000000
    9       -9.396423   1.000000
   10       -9.396423   1.000000
   11       -7.312758   1.000000
   12       -7.312758   1.000000
   13        3.807125   1.000000
   14        3.807125   1.000000
   15        4.126748   0.963269
   16        4.126748   0.963269
   17        4.126749   0.963263
   18        4.126749   0.963263
   19        4.288999  -0.000988
   20        4.288999  -0.000988
   21        7.808652   0.000000
 
  0.1020408E-01  0.0000000E+00  0.1020408E-01  0.4000000E-02
    1      -10.273507   1.000000
    2      -10.273501   1.000000
    3      -10.272965   1.000000
    4      -10.272959   1.000000
    5       -9.482391   1.000000
    6       -9.482391   1.000000
    7       -9.396772   1.000000
    8       -9.396768   1.000000
    9       -9.396113   1.000000
   10       -9.396110   1.000000
   11       -7.311360   1.000000
   12       -7.311360   1.000000
   13        3.788745   1.000000
   14        3.788745   1.000000
   15        4.064425   1.009184
   16        4.064427   1.009185
   17        4.121804   0.992269
   18        4.121804   0.992266
   19        4.365526  -0.000000
   20        4.365526  -0.000000
   21        7.681566   0.000000
 
  0.2040816E-01  0.0000000E+00  0.2040816E-01  0.4000000E-02
    1      -10.273831   1.000000
    2      -10.273825   1.000000
    3      -10.272698   1.000000
    4      -10.272693   1.000000
    5       -9.482495   1.000000
    6       -9.482495   1.000000
    7       -9.397146   1.000000
    8       -9.397142   1.000000
    9       -9.395832   1.000000
   10       -9.395828   1.000000
   11       -7.307149   1.000000
   12       -7.307149   1.000000
   13        3.728785   1.000000
   14        3.728787   1.000000
   15        3.982124   1.000002
   16        3.982126   1.000002
   17        4.107090   1.032782
   18        4.107090   1.032782
   19        4.495342  -0.000000
   20        4.495342  -0.000000
   21        8.468071   0.000000
 
  0.3061224E-01  0.0000000E+00  0.3061224E-01  0.4000000E-02
    1      -10.274218   1.000000
    2      -10.274212   1.000000
    3      -10.272404   1.000000
    4      -10.272399   1.000000
    5       -9.482670   1.000000
    6       -9.482669   1.000000
    7       -9.397543   1.000000
    8       -9.397539   1.000000
    9       -9.395581   1.000000
   10       -9.395577   1.000000
   11       -7.300133   1.000000
   12       -7.300133   1.000000
   13        3.628312   1.000000
   14        3.628313   1.000000
   15        3.922382   1.000000
   16        3.922383   1.000000
   17        4.082966   1.023739
   18        4.082966   1.023742
   19        4.635030  -0.000000
   20        4.635030  -0.000000
   21        8.201496   0.000000
 
  0.4081633E-01  0.0000000E+00  0.4081633E-01  0.4000000E-02
    1      -10.274687   1.000000
    2      -10.274682   1.000000
    3      -10.272075   1.000000
    4      -10.272070   1.000000
    5       -9.482925   1.000000
    6       -9.482925   1.000000
    7       -9.397963   1.000000
    8       -9.397959   1.000000
    9       -9.395370   1.000000
   10       -9.395366   1.000000
   11       -7.290326   1.000000
   12       -7.290326   1.000000
   13        3.503703   1.000000
   14        3.503704   1.000000
   15        3.875668   1.000000
   16        3.875670   1.000000
   17        4.049984   1.003346
   18        4.049984   1.003348
   19        4.778023  -0.000000
   20        4.778023  -0.000000
   21        8.503621   0.000000
 
  0.5102041E-01  0.0000000E+00  0.5102041E-01  0.4000000E-02
    1      -10.275251   1.000000
    2      -10.275246   1.000000
    3      -10.271700   1.000000
    4      -10.271696   1.000000
    5       -9.483271   1.000000
    6       -9.483271   1.000000
    7       -9.398394   1.000000
    8       -9.398390   1.000000
    9       -9.395184   1.000000
   10       -9.395181   1.000000
   11       -7.277748   1.000000
   12       -7.277748   1.000000
   13        3.368241   1.000000
   14        3.368242   1.000000
   15        3.831141   1.000000
   16        3.831143   1.000000
   17        4.008852   1.000063
   18        4.008852   1.000063
   19        4.922252  -0.000000
   20        4.922253  -0.000000
   21        7.897575   0.000000
 
  0.6122449E-01  0.0000000E+00  0.6122449E-01  0.4000000E-02
    1      -10.275901   1.000000
    2      -10.275897   1.000000
    3      -10.271259   1.000000
    4      -10.271254   1.000000
    5       -9.483681   1.000000
    6       -9.483681   1.000000
    7       -9.398812   1.000000
    8       -9.398809   1.000000
    9       -9.395019   1.000000
   10       -9.395015   1.000000
   11       -7.262418   1.000000
   12       -7.262418   1.000000
   13        3.227961   1.000000
   14        3.227961   1.000000
   15        3.784226   1.000000
   16        3.784227   1.000000
   17        3.960388   1.000000
   18        3.960388   1.000000
   19        5.066694  -0.000000
   20        5.066694  -0.000000
   21        8.208314   0.000000
 
  0.7142857E-01  0.0000000E+00  0.7142857E-01  0.4000000E-02
    1      -10.276658   1.000000
    2      -10.276655   1.000000
    3      -10.270762   1.000000
    4      -10.270758   1.000000
    5       -9.484196   1.000000
    6       -9.484196   1.000000
    7       -9.399217   1.000000
    8       -9.399214   1.000000
    9       -9.394876   1.000000
   10       -9.394873   1.000000
   11       -7.244372   1.000000
   12       -7.244372   1.000000
   13        3.085426   1.000000
   14        3.085426   1.000000
   15        3.733428   1.000000
   16        3.733429   1.000000
   17        3.905446   1.000000
   18        3.905446   1.000000
   19        5.210683  -0.000000
   20        5.210684  -0.000000
   21        7.742123   0.000000
 
  0.8163265E-01  0.0000000E+00  0.8163265E-01  0.4000000E-02
    1      -10.277507   1.000000
    2      -10.277503   1.000000
    3      -10.270203   1.000000
    4      -10.270200   1.000000
    5       -9.484792   1.000000
    6       -9.484792   1.000000
    7       -9.399588   1.000000
    8       -9.399584   1.000000
    9       -9.394752   1.000000
   10       -9.394748   1.000000
   11       -7.223646   1.000000
   12       -7.223646   1.000000
   13        2.941852   1.000000
   14        2.941852   1.000000
   15        3.678491   1.000000
   16        3.678491   1.000000
   17        3.844905   1.000000
   18        3.844905   1.000000
   19        5.353681  -0.000000
   20        5.353682  -0.000000
   21        7.900430   0.000000
 
  0.9183673E-01  0.0000000E+00  0.9183673E-01  0.4000000E-02
    1      -10.278449   1.000000
    2      -10.278446   1.000000
    3      -10.269578   1.000000
    4      -10.269575   1.000000
    5       -9.485476   1.000000
    6       -9.485476   1.000000
    7       -9.399905   1.000000
    8       -9.399901   1.000000
    9       -9.394636   1.000000
   10       -9.394632   1.000000
   11       -7.200278   1.000000
   12       -7.200278   1.000000
   13        2.797887   1.000000
   14        2.797887   1.000000
   15        3.619627   1.000000
   16        3.619628   1.000000
   17        3.779611   1.000000
   18        3.779611   1.000000
   19        5.495199  -0.000000
   20        5.495199  -0.000000
   21        7.428362   0.000000
 
  0.1020408E+00  0.0000000E+00  0.1020408E+00  0.4000000E-02
    1      -10.279478   1.000000
    2      -10.279475   1.000000
    3      -10.268891   1.000000
    4      -10.268888   1.000000
    5       -9.486248   1.000000
    6       -9.486248   1.000000
    7       -9.400152   1.000000
    8       -9.400149   1.000000
    9       -9.394527   1.000000
   10       -9.394523   1.000000
   11       -7.174314   1.000000
   12       -7.174314   1.000000
   13        2.653895   1.000000
   14        2.653895   1.000000
   15        3.557256   1.000000
   16        3.557257   1.000000
   17        3.710369   1.000000
   18        3.710369   1.000000
   19        5.634736   0.000000
   20        5.634736   0.000000
   21        7.879713   0.000000
 
  0.1122449E+00  0.0000000E+00  0.1122449E+00  0.4000000E-02
    1      -10.280608   1.000000
    2      -10.280605   1.000000
    3      -10.268149   1.000000
    4      -10.268146   1.000000
    5       -9.487130   1.000000
    6       -9.487130   1.000000
    7       -9.400327   1.000000
    8       -9.400324   1.000000
    9       -9.394429   1.000000
   10       -9.394426   1.000000
   11       -7.145794   1.000000
   12       -7.145794   1.000000
   13        2.510119   1.000000
   14        2.510119   1.000000
   15        3.491860   1.000000
   16        3.491860   1.000000
   17        3.637917   1.000000
   18        3.637917   1.000000
   19        5.771746   0.000000
   20        5.771746   0.000000
   21        7.380594   0.000000
 
  0.1224490E+00  0.0000000E+00  0.1224490E+00  0.4000000E-02
    1      -10.281841   1.000000
    2      -10.281839   1.000000
    3      -10.267361   1.000000
    4      -10.267359   1.000000
    5       -9.488128   1.000000
    6       -9.488127   1.000000
    7       -9.400434   1.000000
    8       -9.400430   1.000000
    9       -9.394350   1.000000
   10       -9.394347   1.000000
   11       -7.114772   1.000000
   12       -7.114772   1.000000
   13        2.366715   1.000000
   14        2.366715   1.000000
   15        3.423940   1.000000
   16        3.423940   1.000000
   17        3.562929   1.000000
   18        3.562929   1.000000
   19        5.905642   0.000000
   20        5.905642   0.000000
   21        7.250876   0.000000
 
  0.1326531E+00  0.0000000E+00  0.1326531E+00  0.4000000E-02
    1      -10.283145   1.000000
    2      -10.283143   1.000000
    3      -10.266517   1.000000
    4      -10.266515   1.000000
    5       -9.489211   1.000000
    6       -9.489211   1.000000
    7       -9.400416   1.000000
    8       -9.400412   1.000000
    9       -9.394263   1.000000
   10       -9.394260   1.000000
   11       -7.081302   1.000000
   12       -7.081302   1.000000
   13        2.223807   1.000000
   14        2.223807   1.000000
   15        3.354021   1.000000
   16        3.354022   1.000000
   17        3.486031   1.000000
   18        3.486031   1.000000
   19        6.035768   0.000000
   20        6.043787   0.000000
   21        7.875830   0.000000
 
  0.1428571E+00  0.0000000E+00  0.1428571E+00  0.4000000E-02
    1      -10.284530   1.000000
    2      -10.284528   1.000000
    3      -10.265628   1.000000
    4      -10.265626   1.000000
    5       -9.490391   1.000000
    6       -9.490391   1.000000
    7       -9.400287   1.000000
    8       -9.400283   1.000000
    9       -9.394177   1.000000
   10       -9.394173   1.000000
   11       -7.045446   1.000000
   12       -7.045446   1.000000
   13        2.081486   1.000000
   14        2.081487   1.000000
   15        3.282564   1.000000
   16        3.282565   1.000000
   17        3.407765   1.000000
   18        3.407765   1.000000
   19        6.161382   0.000000
   20        6.161389   0.000000
   21        7.729089   0.000000
 
  0.1530612E+00  0.0000000E+00  0.1530612E+00  0.4000000E-02
    1      -10.285989   1.000000
    2      -10.285987   1.000000
    3      -10.264693   1.000000
    4      -10.264691   1.000000
    5       -9.491659   1.000000
    6       -9.491659   1.000000
    7       -9.400040   1.000000
    8       -9.400036   1.000000
    9       -9.394085   1.000000
   10       -9.394082   1.000000
   11       -7.007275   1.000000
   12       -7.007275   1.000000
   13        1.939836   1.000000
   14        1.939837   1.000000
   15        3.210010   1.000000
   16        3.210011   1.000000
   17        3.328621   1.000000
   18        3.328621   1.000000
   19        6.310197   0.000000
   20        6.327260   0.000000
   21        7.586625   0.000000
 
  0.1632653E+00  0.0000000E+00  0.1632653E+00  0.4000000E-02
    1      -10.287517   1.000000
    2      -10.287515   1.000000
    3      -10.263728   1.000000
    4      -10.263726   1.000000
    5       -9.493009   1.000000
    6       -9.493009   1.000000
    7       -9.399676   1.000000
    8       -9.399672   1.000000
    9       -9.394006   1.000000
   10       -9.394003   1.000000
   11       -6.966852   1.000000
   12       -6.966852   1.000000
   13        1.798923   1.000000
   14        1.798924   1.000000
   15        3.136764   1.000000
   16        3.136764   1.000000
   17        3.249032   1.000000
   18        3.249032   1.000000
   19        6.396449   0.000000
   20        6.397245   0.000000
   21        7.023911   0.000000
 
  0.1734694E+00  0.0000000E+00  0.1734694E+00  0.4000000E-02
    1      -10.289109   1.000000
    2      -10.289107   1.000000
    3      -10.262721   1.000000
    4      -10.262719   1.000000
    5       -9.494433   1.000000
    6       -9.494432   1.000000
    7       -9.399190   1.000000
    8       -9.399186   1.000000
    9       -9.393898   1.000000
   10       -9.393895   1.000000
   11       -6.924249   1.000000
   12       -6.924249   1.000000
   13        1.658838   1.000000
   14        1.658838   1.000000
   15        3.063196   1.000000
   16        3.063196   1.000000
   17        3.169385   1.000000
   18        3.169385   1.000000
   19        6.501993   0.000000
   20        6.502303   0.000000
   21        6.916488   0.000000
 
  0.1836735E+00  0.0000000E+00  0.1836735E+00  0.4000000E-02
    1      -10.290757   1.000000
    2      -10.290756   1.000000
    3      -10.261667   1.000000
    4      -10.261666   1.000000
    5       -9.495915   1.000000
    6       -9.495915   1.000000
    7       -9.398583   1.000000
    8       -9.398579   1.000000
    9       -9.393744   1.000000
   10       -9.393741   1.000000
   11       -6.879550   1.000000
   12       -6.879550   1.000000
   13        1.519645   1.000000
   14        1.519645   1.000000
   15        2.989642   1.000000
   16        2.989642   1.000000
   17        3.090019   1.000000
   18        3.090019   1.000000
   19        6.598603   0.000000
   20        6.612504   0.000000
   21        6.852230   0.000000
 
  0.1938776E+00  0.0000000E+00  0.1938776E+00  0.4000000E-02
    1      -10.292460   1.000000
    2      -10.292458   1.000000
    3      -10.260607   1.000000
    4      -10.260606   1.000000
    5       -9.497456   1.000000
    6       -9.497455   1.000000
    7       -9.397887   1.000000
    8       -9.397883   1.000000
    9       -9.393594   1.000000
   10       -9.393590   1.000000
   11       -6.832836   1.000000
   12       -6.832836   1.000000
   13        1.381406   1.000000
   14        1.381406   1.000000
   15        2.916406   1.000000
   16        2.916406   1.000000
   17        3.011240   1.000000
   18        3.011240   1.000000
   19        6.686035   0.000000
   20        6.788484   0.000000
   21        6.797443   0.000000
 
  0.2040816E+00  0.0000000E+00  0.2040816E+00  0.4000000E-02
    1      -10.294208   1.000000
    2      -10.294206   1.000000
    3      -10.259529   1.000000
    4      -10.259527   1.000000
    5       -9.499037   1.000000
    6       -9.499037   1.000000
    7       -9.397116   1.000000
    8       -9.397111   1.000000
    9       -9.393400   1.000000
   10       -9.393396   1.000000
   11       -6.784193   1.000000
   12       -6.784193   1.000000
   13        1.244202   1.000000
   14        1.244202   1.000000
   15        2.843769   1.000000
   16        2.843769   1.000000
   17        2.933319   1.000000
   18        2.933319   1.000000
   19        6.691896   0.000000
   20        6.718051   0.000000
   21        6.802816   0.000000
 
  0.2142857E+00  0.0000000E+00  0.2142857E+00  0.4000000E-02
    1      -10.296000   1.000000
    2      -10.295999   1.000000
    3      -10.258452   1.000000
    4      -10.258451   1.000000
    5       -9.500661   1.000000
    6       -9.500661   1.000000
    7       -9.396326   1.000000
    8       -9.396321   1.000000
    9       -9.393142   1.000000
   10       -9.393138   1.000000
   11       -6.733716   1.000000
   12       -6.733716   1.000000
   13        1.108102   1.000000
   14        1.108102   1.000000
   15        2.771975   1.000000
   16        2.771976   1.000000
   17        2.856496   1.000000
   18        2.856496   1.000000
   19        6.667723   0.000000
   20        6.749662   0.000000
   21        6.868944   0.000000
 
  0.2244898E+00  0.0000000E+00  0.2244898E+00  0.4000000E-02
    1      -10.297817   1.000000
    2      -10.297816   1.000000
    3      -10.257351   1.000000
    4      -10.257350   1.000000
    5       -9.502287   1.000000
    6       -9.502287   1.000000
    7       -9.395561   1.000000
    8       -9.395555   1.000000
    9       -9.392724   1.000000
   10       -9.392719   1.000000
   11       -6.681513   1.000000
   12       -6.681513   1.000000
   13        0.973225   1.000000
   14        0.973225   1.000000
   15        2.701263   1.000000
   16        2.701264   1.000000
   17        2.780992   1.000000
   18        2.780993   1.000000
   19        6.581781   0.000000
   20        6.811274   0.000000
   21        6.913165   0.000000
 
  0.2346939E+00  0.0000000E+00  0.2346939E+00  0.4000000E-02
    1      -10.299657   1.000000
    2      -10.299656   1.000000
    3      -10.256243   1.000000
    4      -10.256242   1.000000
    5       -9.503916   1.000000
    6       -9.503916   1.000000
    7       -9.394923   1.000000
    8       -9.394919   1.000000
    9       -9.392077   1.000000
   10       -9.392072   1.000000
   11       -6.627692   1.000000
   12       -6.627692   1.000000
   13        0.839657   1.000000
   14        0.839657   1.000000
   15        2.631835   1.000000
   16        2.631836   1.000000
   17        2.707000   1.000000
   18        2.707000   1.000000
   19        6.520867   0.000000
   20        6.753729   0.000000
   21        6.961374   0.000000
 
  0.2448980E+00  0.0000000E+00  0.2448980E+00  0.4000000E-02
    1      -10.301513   1.000000
    2      -10.301512   1.000000
    3      -10.255133   1.000000
    4      -10.255132   1.000000
    5       -9.505537   1.000000
    6       -9.505537   1.000000
    7       -9.394460   1.000000
    8       -9.394456   1.000000
    9       -9.391165   1.000000
   10       -9.391161   1.000000
   11       -6.572373   1.000000
   12       -6.572373   1.000000
   13        0.707513   1.000000
   14        0.707513   1.000000
   15        2.563879   1.000000
   16        2.563879   1.000000
   17        2.634694   1.000000
   18        2.634694   1.000000
   19        6.531432   0.000000
   20        6.669937   0.000000
   21        6.996414   0.000000
 
  0.2551020E+00  0.0000000E+00  0.2551020E+00  0.4000000E-02
    1      -10.303375   1.000000
    2      -10.303374   1.000000
    3      -10.254026   1.000000
    4      -10.254025   1.000000
    5       -9.507139   1.000000
    6       -9.507138   1.000000
    7       -9.394134   1.000000
    8       -9.394131   1.000000
    9       -9.390036   1.000000
   10       -9.390033   1.000000
   11       -6.515685   1.000000
   12       -6.515685   1.000000
   13        0.576916   1.000000
   14        0.576916   1.000000
   15        2.497565   1.000000
   16        2.497566   1.000000
   17        2.564230   1.000000
   18        2.564230   1.000000
   19        6.407827   0.000000
   20        6.838374   0.000000
   21        7.019891   0.000000
 
  0.2653061E+00  0.0000000E+00  0.2653061E+00  0.4000000E-02
    1      -10.305236   1.000000
    2      -10.305236   1.000000
    3      -10.252925   1.000000
    4      -10.252924   1.000000
    5       -9.508711   1.000000
    6       -9.508711   1.000000
    7       -9.393886   1.000000
    8       -9.393884   1.000000
    9       -9.388758   1.000000
   10       -9.388756   1.000000
   11       -6.457774   1.000000
   12       -6.457774   1.000000
   13        0.448006   1.000000
   14        0.448006   1.000000
   15        2.433050   1.000000
   16        2.433050   1.000000
   17        2.495752   1.000000
   18        2.495752   1.000000
   19        6.363908   0.000000
   20        6.370119   0.000000
   21        7.502934   0.000000
 
  0.2755102E+00  0.0000000E+00  0.2755102E+00  0.4000000E-02
    1      -10.307096   1.000000
    2      -10.307095   1.000000
    3      -10.251864   1.000000
    4      -10.251864   1.000000
    5       -9.510261   1.000000
    6       -9.510261   1.000000
    7       -9.393729   1.000000
    8       -9.393727   1.000000
    9       -9.387397   1.000000
   10       -9.387395   1.000000
   11       -6.398797   1.000000
   12       -6.398797   1.000000
   13        0.320911   1.000000
   14        0.320911   1.000000
   15        2.370470   1.000000
   16        2.370470   1.000000
   17        2.429385   1.000000
   18        2.429385   1.000000
   19        6.302960   0.000000
   20        6.946430   0.000000
   21        7.035685   0.000000
 
  0.2857143E+00  0.0000000E+00  0.2857143E+00  0.4000000E-02
    1      -10.308945   1.000000
    2      -10.308945   1.000000
    3      -10.250808   1.000000
    4      -10.250807   1.000000
    5       -9.511770   1.000000
    6       -9.511770   1.000000
    7       -9.393562   1.000000
    8       -9.393561   1.000000
    9       -9.385981   1.000000
   10       -9.385980   1.000000
   11       -6.338914   1.000000
   12       -6.338914   1.000000
   13        0.195827   1.000000
   14        0.195827   1.000000
   15        2.309957   1.000000
   16        2.309957   1.000000
   17        2.365247   1.000000
   18        2.365247   1.000000
   19        6.254139   0.000000
   20        6.257370   0.000000
   21        7.028901   0.000000
 
  0.2959184E+00  0.0000000E+00  0.2959184E+00  0.4000000E-02
    1      -10.310763   1.000000
    2      -10.310762   1.000000
    3      -10.249764   1.000000
    4      -10.249764   1.000000
    5       -9.513215   1.000000
    6       -9.513215   1.000000
    7       -9.393399   1.000000
    8       -9.393399   1.000000
    9       -9.384502   1.000000
   10       -9.384502   1.000000
   11       -6.278312   1.000000
   12       -6.278312   1.000000
   13        0.072943   1.000000
   14        0.072943   1.000000
   15        2.251638   1.000000
   16        2.251638   1.000000
   17        2.303452   1.000000
   18        2.303452   1.000000
   19        6.207784   0.000000
   20        6.207827   0.000000
   21        7.013922   0.000000
 
  0.3061224E+00  0.0000000E+00  0.3061224E+00  0.4000000E-02
    1      -10.312550   1.000000
    2      -10.312550   1.000000
    3      -10.248749   1.000000
    4      -10.248748   1.000000
    5       -9.514605   1.000000
    6       -9.514605   1.000000
    7       -9.393246   1.000000
    8       -9.393246   1.000000
    9       -9.383001   1.000000
   10       -9.383000   1.000000
   11       -6.217196   1.000000
   12       -6.217196   1.000000
   13       -0.047542   1.000000
   14       -0.047542   1.000000
   15        2.195617   1.000000
   16        2.195617   1.000000
   17        2.244094   1.000000
   18        2.244094   1.000000
   19        6.163969   0.000000
   20        6.163978   0.000000
   21        6.991964   0.000000
 
  0.3163265E+00  0.0000000E+00  0.3163265E+00  0.4000000E-02
    1      -10.314299   1.000000
    2      -10.314299   1.000000
    3      -10.247761   1.000000
    4      -10.247760   1.000000
    5       -9.515935   1.000000
    6       -9.515935   1.000000
    7       -9.393095   1.000000
    8       -9.393095   1.000000
    9       -9.381490   1.000000
   10       -9.381489   1.000000
   11       -6.155785   1.000000
   12       -6.155785   1.000000
   13       -0.165402   1.000000
   14       -0.165402   1.000000
   15        2.141994   1.000000
   16        2.141994   1.000000
   17        2.187260   1.000000
   18        2.187261   1.000000
   19        6.122747   0.000000
   20        6.122747   0.000000
   21        6.964267   0.000000
 
  0.3265306E+00  0.0000000E+00  0.3265306E+00  0.4000000E-02
    1      -10.316003   1.000000
    2      -10.316003   1.000000
    3      -10.246806   1.000000
    4      -10.246805   1.000000
    5       -9.517200   1.000000
    6       -9.517200   1.000000
    7       -9.392946   1.000000
    8       -9.392945   1.000000
    9       -9.379983   1.000000
   10       -9.379983   1.000000
   11       -6.094321   1.000000
   12       -6.094321   1.000000
   13       -0.280379   1.000000
   14       -0.280379   1.000000
   15        2.090859   1.000000
   16        2.090859   1.000000
   17        2.133033   1.000000
   18        2.133033   1.000000
   19        6.084131   0.000000
   20        6.084141   0.000000
   21        6.932039   0.000000
 
  0.3367347E+00  0.0000000E+00  0.3367347E+00  0.4000000E-02
    1      -10.317654   1.000000
    2      -10.317653   1.000000
    3      -10.245887   1.000000
    4      -10.245887   1.000000
    5       -9.518398   1.000000
    6       -9.518398   1.000000
    7       -9.392798   1.000000
    8       -9.392797   1.000000
    9       -9.378493   1.000000
   10       -9.378493   1.000000
   11       -6.033074   1.000000
   12       -6.033074   1.000000
   13       -0.392194   1.000000
   14       -0.392194   1.000000
   15        2.042296   1.000000
   16        2.042296   1.000000
   17        2.081486   1.000000
   18        2.081486   1.000000
   19        6.048145   0.000000
   20        6.048161   0.000000
   21        6.896421   0.000000
 
  0.3469388E+00  0.0000000E+00  0.3469388E+00  0.4000000E-02
    1      -10.319243   1.000000
    2      -10.319243   1.000000
    3      -10.245007   1.000000
    4      -10.245006   1.000000
    5       -9.519524   1.000000
    6       -9.519524   1.000000
    7       -9.392650   1.000000
    8       -9.392649   1.000000
    9       -9.377031   1.000000
   10       -9.377031   1.000000
   11       -5.972337   1.000000
   12       -5.972337   1.000000
   13       -0.500539   1.000000
   14       -0.500539   1.000000
   15        1.996385   1.000000
   16        1.996385   1.000000
   17        2.032690   1.000000
   18        2.032690   1.000000
   19        6.014784   0.000000
   20        6.014804   0.000000
   21        6.858465   0.000000
 
  0.3571429E+00  0.0000000E+00  0.3571429E+00  0.4000000E-02
    1      -10.320774   1.000000
    2      -10.320773   1.000000
    3      -10.244181   1.000000
    4      -10.244180   1.000000
    5       -9.520593   1.000000
    6       -9.520593   1.000000
    7       -9.392515   1.000000
    8       -9.392515   1.000000
    9       -9.375626   1.000000
   10       -9.375626   1.000000
   11       -5.912442   1.000000
   12       -5.912442   1.000000
   13       -0.605090   1.000000
   14       -0.605090   1.000000
   15        1.953190   1.000000
   16        1.953190   1.000000
   17        1.986701   1.000000
   18        1.986701   1.000000
   19        5.984037   0.000000
   20        5.984088   0.000000
   21        6.819118   0.000000
 
  0.3673469E+00  0.0000000E+00  0.3673469E+00  0.4000000E-02
    1      -10.322223   1.000000
    2      -10.322222   1.000000
    3      -10.243390   1.000000
    4      -10.243390   1.000000
    5       -9.521576   1.000000
    6       -9.521576   1.000000
    7       -9.392374   1.000000
    8       -9.392374   1.000000
    9       -9.374255   1.000000
   10       -9.374255   1.000000
   11       -5.853730   1.000000
   12       -5.853730   1.000000
   13       -0.705460   1.000000
   14       -0.705460   1.000000
   15        1.912786   1.000000
   16        1.912787   1.000000
   17        1.943585   1.000000
   18        1.943585   1.000000
   19        5.955882   0.000000
   20        5.956044   0.000000
   21        6.779236   0.000000
 
  0.3775510E+00  0.0000000E+00  0.3775510E+00  0.4000000E-02
    1      -10.323582   1.000000
    2      -10.323581   1.000000
    3      -10.242636   1.000000
    4      -10.242636   1.000000
    5       -9.522469   1.000000
    6       -9.522469   1.000000
    7       -9.392227   1.000000
    8       -9.392227   1.000000
    9       -9.372929   1.000000
   10       -9.372929   1.000000
   11       -5.796585   1.000000
   12       -5.796585   1.000000
   13       -0.801261   1.000000
   14       -0.801261   1.000000
   15        1.875234   1.000000
   16        1.875234   1.000000
   17        1.903393   1.000000
   18        1.903393   1.000000
   19        5.930282   0.000000
   20        5.930718   0.000000
   21        6.739581   0.000000
 
  0.3877551E+00  0.0000000E+00  0.3877551E+00  0.4000000E-02
    1      -10.324866   1.000000
    2      -10.324866   1.000000
    3      -10.241949   1.000000
    4      -10.241949   1.000000
    5       -9.523306   1.000000
    6       -9.523306   1.000000
    7       -9.392099   1.000000
    8       -9.392099   1.000000
    9       -9.371689   1.000000
   10       -9.371689   1.000000
   11       -5.741420   1.000000
   12       -5.741420   1.000000
   13       -0.892065   1.000000
   14       -0.892065   1.000000
   15        1.840575   1.000000
   16        1.840575   1.000000
   17        1.866164   1.000000
   18        1.866164   1.000000
   19        5.907175   0.000000
   20        5.907613   0.000000
   21        6.700808   0.000000
 
  0.3979592E+00  0.0000000E+00  0.3979592E+00  0.4000000E-02
    1      -10.326058   1.000000
    2      -10.326058   1.000000
    3      -10.241304   1.000000
    4      -10.241304   1.000000
    5       -9.524068   1.000000
    6       -9.524068   1.000000
    7       -9.391957   1.000000