       N       E                     dE             d eps       ncg     rms          ort
SDA:   1     0.985447714117E+02    0.98545E+02   -0.67307E+02  5250   0.168E+03 0.000E+00
DMP:   2     0.468470881814E+02   -0.51698E+02   -0.41030E+02  5250   0.700E+02 0.853E+02
DMP:   3     0.170180612924E+02   -0.29829E+02   -0.18906E+02  5250   0.308E+02 0.431E+02
DMP:   4     0.451490930274E+01   -0.12503E+02   -0.75780E+01  5250   0.138E+02 0.134E+02
DMP:   5    -0.124729325884E+01   -0.57622E+01   -0.44786E+01  5250   0.802E+01 0.831E+01
DMP:   6    -0.480244677960E+01   -0.35552E+01   -0.23223E+01  5250   0.369E+01 0.553E+01
DMP:   7    -0.695729948947E+01   -0.21549E+01   -0.15124E+01  5250   0.225E+01 0.402E+01
DMP:   8    -0.826641941443E+01   -0.13091E+01   -0.70902E+00  5250   0.989E+00 0.205E+01
DMP:   9    -0.890781794642E+01   -0.64140E+00   -0.42602E+00  5250   0.593E+00 0.124E+01
DMP:  10    -0.921999927238E+01   -0.31218E+00   -0.19044E+00  5250   0.252E+00 0.586E+00
DMP:  11    -0.939743587049E+01   -0.17744E+00   -0.10758E+00  5250   0.139E+00 0.341E+00
DMP:  12    -0.948946668699E+01   -0.92031E-01   -0.54828E-01  5250   0.679E-01 0.181E+00
DMP:  13    -0.953745513467E+01   -0.47988E-01   -0.28403E-01  5250   0.342E-01 0.963E-01
DMP:  14    -0.956260604062E+01   -0.25151E-01   -0.14926E-01  5250   0.178E-01 0.512E-01
DMP:  15    -0.957595030899E+01   -0.13344E-01   -0.79615E-02  5250   0.938E-02 0.276E-01
DMP:  16    -0.958314491928E+01   -0.71946E-02   -0.43295E-02  5250   0.504E-02 0.151E-01
DMP:  17    -0.958709275069E+01   -0.39478E-02   -0.23917E-02  5250   0.275E-02 0.846E-02
DMP:  18    -0.958928157702E+01   -0.21888E-02   -0.13243E-02  5250   0.150E-02 0.475E-02
DMP:  19    -0.959049637690E+01   -0.12148E-02   -0.73143E-03  5250   0.813E-03 0.266E-02
DMP:  20    -0.959116503685E+01   -0.66866E-03   -0.39533E-03  5250   0.431E-03 0.146E-02
DMP:  21    -0.959152118494E+01   -0.35615E-03   -0.20360E-03  5250   0.218E-03 0.762E-03
DMP:  22    -0.959170090420E+01   -0.17972E-03   -0.98896E-04  5250   0.104E-03 0.375E-03
DMP:  23    -0.959178658129E+01   -0.85677E-04   -0.45597E-04  5250   0.473E-04 0.175E-03
DMP:  24    -0.959182553852E+01   -0.38957E-04   -0.20202E-04  5250   0.207E-04 0.780E-04
DMP:  25    -0.959184263022E+01   -0.17092E-04   -0.86877E-05  5250   0.879E-05 0.338E-04
DMP:  26    -0.959184992182E+01   -0.72916E-05   -0.36417E-05  5250   0.364E-05 0.143E-04
   1 F= -.95918499E+01 E0= -.95919367E+01  d E =0.260403E-03  mag=     0.0000     0.0000     0.0000
