 running on   54 total cores
 distrk:  each k-point on    9 cores,    6 groups
 distr:  one band on    3 cores,    3 groups
 using from now: INCAR     
 vasp.5.4.4.18Apr17-6-g9f103f2a35 (build Sep 01 2023 15:53:54) complex          
  
 POSCAR found type information on POSCAR  In As
 POSCAR found :  2 types and       2 ions
 scaLAPACK will be used

 ----------------------------------------------------------------------------- 
|                                                                             |
|           W    W    AA    RRRRR   N    N  II  N    N   GGGG   !!!           |
|           W    W   A  A   R    R  NN   N  II  NN   N  G    G  !!!           |
|           W    W  A    A  R    R  N N  N  II  N N  N  G       !!!           |
|           W WW W  AAAAAA  RRRRR   N  N N  II  N  N N  G  GGG   !            |
|           WW  WW  A    A  R   R   N   NN  II  N   NN  G    G                |
|           W    W  A    A  R    R  N    N  II  N    N   GGGG   !!!           |
|                                                                             |
|      For optimal performance we recommend to set                            |
|        NCORE= 4 - approx SQRT( number of cores)                             |
|      NCORE specifies how many cores store one orbital (NPAR=cpu/NCORE).     |
|      This setting can  greatly improve the performance of VASP for DFT.     |
|      The default,   NCORE=1            might be grossly inefficient         |
|      on modern multi-core architectures or massively parallel machines.     |
|      Do your own testing !!!!                                               |
|      Unfortunately you need to use the default for GW and RPA calculations. |
|      (for HF NCORE is supported but not extensively tested yet)             |
|                                                                             |
 ----------------------------------------------------------------------------- 


 ----------------------------------------------------------------------------- 
|                                                                             |
|           W    W    AA    RRRRR   N    N  II  N    N   GGGG   !!!           |
|           W    W   A  A   R    R  NN   N  II  NN   N  G    G  !!!           |
|           W    W  A    A  R    R  N N  N  II  N N  N  G       !!!           |
|           W WW W  AAAAAA  RRRRR   N  N N  II  N  N N  G  GGG   !            |
|           WW  WW  A    A  R   R   N   NN  II  N   NN  G    G                |
|           W    W  A    A  R    R  N    N  II  N    N   GGGG   !!!           |
|                                                                             |
|      You have enabled k-point parallelism (KPAR>1).                         |
|      This developmental code was originally  written by Paul Kent at ORNL,  |
|      and carefully double checked in Vienna.                                |
|      GW as well as linear response parallelism added by Martijn Marsman     |
|      and Georg Kresse.                                                      |
|      Carefully verify results versus KPAR=1.                                |
|      Report problems to Paul Kent and Vienna.                               |
|                                                                             |
 ----------------------------------------------------------------------------- 

 LDA part: xc-table for Pade appr. of Perdew
 found WAVECAR, reading the header
  number of k-points has changed, file:    30 present:   250
  trying to continue reading WAVECAR, but it might fail
 WARNING: stress and forces are not correct
 POSCAR, INCAR and KPOINTS ok, starting setup
 FFT: planning ...
 reading WAVECAR
 the WAVECAR file was read successfully
 reading imaginary part of occupancies ...
 charge-density read from file: unknown                                 
 reading imaginary part of occupancies ...
 magnetization density read from file 1
 reading imaginary part of occupancies ...
 magnetization density read from file 2
 reading imaginary part of occupancies ...
 magnetization density read from file 3
 entering main loop
       N       E                     dE             d eps       ncg     rms          ort
 gam= 0.000 g(H,U,f)=  0.158E+03 0.991E+01-0.199E-12 ort(H,U,f) = 0.000E+00 0.000E+00 0.000E+00
SDA:   1     0.985447714117E+02    0.98545E+02   -0.67307E+02  5250   0.168E+03 0.000E+00
 gam= 0.382 g(H,U,f)=  0.636E+02 0.618E+01 0.242E+00 ort(H,U,f) = 0.790E+02 0.568E+01 0.635E+00
DMP:   2     0.468470881814E+02   -0.51698E+02   -0.41030E+02  5250   0.700E+02 0.853E+02
 gam= 0.382 g(H,U,f)=  0.259E+02 0.457E+01 0.372E+00 ort(H,U,f) = 0.359E+02 0.559E+01 0.168E+01
DMP:   3     0.170180612924E+02   -0.29829E+02   -0.18906E+02  5250   0.308E+02 0.431E+02
 gam= 0.382 g(H,U,f)=  0.105E+02 0.328E+01 0.901E-01 ort(H,U,f) = 0.898E+01 0.456E+01-0.158E+00
DMP:   4     0.451490930274E+01   -0.12503E+02   -0.75780E+01  5250   0.138E+02 0.134E+02
 gam= 0.382 g(H,U,f)=  0.521E+01 0.220E+01 0.611E+00 ort(H,U,f) = 0.446E+01 0.402E+01-0.169E+00
DMP:   5    -0.124729325884E+01   -0.57622E+01   -0.44786E+01  5250   0.802E+01 0.831E+01
 gam= 0.382 g(H,U,f)=  0.237E+01 0.142E+01-0.105E+00 ort(H,U,f) = 0.249E+01 0.315E+01-0.116E+00
DMP:   6    -0.480244677960E+01   -0.35552E+01   -0.23223E+01  5250   0.369E+01 0.553E+01
 gam= 0.382 g(H,U,f)=  0.115E+01 0.859E+00 0.233E+00 ort(H,U,f) = 0.136E+01 0.214E+01 0.519E+00
DMP:   7    -0.695729948947E+01   -0.21549E+01   -0.15124E+01  5250   0.225E+01 0.402E+01
 gam= 0.382 g(H,U,f)=  0.486E+00 0.479E+00 0.235E-01 ort(H,U,f) = 0.677E+00 0.127E+01 0.101E+00
DMP:   8    -0.826641941443E+01   -0.13091E+01   -0.70902E+00  5250   0.989E+00 0.205E+01
 gam= 0.382 g(H,U,f)=  0.219E+00 0.268E+00 0.106E+00 ort(H,U,f) = 0.298E+00 0.748E+00 0.191E+00
DMP:   9    -0.890781794642E+01   -0.64140E+00   -0.42602E+00  5250   0.593E+00 0.124E+01
 gam= 0.382 g(H,U,f)=  0.101E+00 0.149E+00 0.260E-02 ort(H,U,f) = 0.145E+00 0.436E+00 0.550E-02
DMP:  10    -0.921999927238E+01   -0.31218E+00   -0.19044E+00  5250   0.252E+00 0.586E+00
 gam= 0.382 g(H,U,f)=  0.455E-01 0.831E-01 0.101E-01 ort(H,U,f) = 0.723E-01 0.251E+00 0.174E-01
DMP:  11    -0.939743587049E+01   -0.17744E+00   -0.10758E+00  5250   0.139E+00 0.341E+00
 gam= 0.382 g(H,U,f)=  0.197E-01 0.467E-01 0.140E-02 ort(H,U,f) = 0.340E-01 0.144E+00 0.323E-02
DMP:  12    -0.948946668699E+01   -0.92031E-01   -0.54828E-01  5250   0.679E-01 0.181E+00
 gam= 0.382 g(H,U,f)=  0.792E-02 0.257E-01 0.619E-03 ort(H,U,f) = 0.149E-01 0.800E-01 0.139E-02
DMP:  13    -0.953745513467E+01   -0.47988E-01   -0.28403E-01  5250   0.342E-01 0.963E-01
 gam= 0.382 g(H,U,f)=  0.312E-02 0.142E-01 0.422E-03 ort(H,U,f) = 0.590E-02 0.443E-01 0.103E-02
DMP:  14    -0.956260604062E+01   -0.25151E-01   -0.14926E-01  5250   0.178E-01 0.512E-01
 gam= 0.382 g(H,U,f)=  0.126E-02 0.798E-02 0.142E-03 ort(H,U,f) = 0.230E-02 0.249E-01 0.386E-03
DMP:  15    -0.957595030899E+01   -0.13344E-01   -0.79615E-02  5250   0.938E-02 0.276E-01
 gam= 0.382 g(H,U,f)=  0.521E-03 0.450E-02 0.164E-04 ort(H,U,f) = 0.910E-03 0.142E-01 0.574E-04
DMP:  16    -0.958314491928E+01   -0.71946E-02   -0.43295E-02  5250   0.504E-02 0.151E-01
 gam= 0.382 g(H,U,f)=  0.231E-03 0.252E-02-0.375E-05 ort(H,U,f) = 0.384E-03 0.808E-02-0.415E-05
DMP:  17    -0.958709275069E+01   -0.39478E-02   -0.23917E-02  5250   0.275E-02 0.846E-02
 gam= 0.382 g(H,U,f)=  0.105E-03 0.139E-02 0.220E-05 ort(H,U,f) = 0.179E-03 0.456E-02 0.833E-05
DMP:  18    -0.958928157702E+01   -0.21888E-02   -0.13243E-02  5250   0.150E-02 0.475E-02
 gam= 0.382 g(H,U,f)=  0.504E-04 0.753E-03 0.101E-04 ort(H,U,f) = 0.883E-04 0.254E-02 0.330E-04
DMP:  19    -0.959049637690E+01   -0.12148E-02   -0.73143E-03  5250   0.813E-03 0.266E-02
 gam= 0.382 g(H,U,f)=  0.244E-04 0.396E-03 0.112E-04 ort(H,U,f) = 0.459E-04 0.137E-02 0.388E-04
DMP:  20    -0.959116503685E+01   -0.66866E-03   -0.39533E-03  5250   0.431E-03 0.146E-02
 gam= 0.382 g(H,U,f)=  0.114E-04 0.199E-03 0.770E-05 ort(H,U,f) = 0.233E-04 0.710E-03 0.283E-04
DMP:  21    -0.959152118494E+01   -0.35615E-03   -0.20360E-03  5250   0.218E-03 0.762E-03
 gam= 0.382 g(H,U,f)=  0.516E-05 0.950E-04 0.397E-05 ort(H,U,f) = 0.111E-04 0.348E-03 0.155E-04
DMP:  22    -0.959170090420E+01   -0.17972E-03   -0.98896E-04  5250   0.104E-03 0.375E-03
 gam= 0.382 g(H,U,f)=  0.224E-05 0.434E-04 0.167E-05 ort(H,U,f) = 0.492E-05 0.163E-03 0.691E-05
DMP:  23    -0.959178658129E+01   -0.85677E-04   -0.45597E-04  5250   0.473E-04 0.175E-03
 gam= 0.382 g(H,U,f)=  0.929E-06 0.192E-04 0.605E-06 ort(H,U,f) = 0.204E-05 0.733E-04 0.266E-05
DMP:  24    -0.959182553852E+01   -0.38957E-04   -0.20202E-04  5250   0.207E-04 0.780E-04
 gam= 0.382 g(H,U,f)=  0.376E-06 0.823E-05 0.193E-06 ort(H,U,f) = 0.800E-06 0.321E-04 0.905E-06
DMP:  25    -0.959184263022E+01   -0.17092E-04   -0.86877E-05  5250   0.879E-05 0.338E-04
 gam= 0.382 g(H,U,f)=  0.149E-06 0.344E-05 0.546E-07 ort(H,U,f) = 0.301E-06 0.137E-04 0.276E-06
DMP:  26    -0.959184992182E+01   -0.72916E-05   -0.36417E-05  5250   0.364E-05 0.143E-04
 final diagonalization
   1 F= -.95918499E+01 E0= -.95919367E+01  d E =0.260403E-03  mag=     0.0000     0.0000     0.0000
