 running on   54 total cores
 distrk:  each k-point on    9 cores,    6 groups
 distr:  one band on    3 cores,    3 groups
 using from now: INCAR     
 vasp.5.4.4.18Apr17-6-g9f103f2a35 (build Sep 01 2023 15:53:54) complex          
  
 POSCAR found type information on POSCAR  In As
 POSCAR found :  2 types and       2 ions
 scaLAPACK will be used

 ----------------------------------------------------------------------------- 
|                                                                             |
|           W    W    AA    RRRRR   N    N  II  N    N   GGGG   !!!           |
|           W    W   A  A   R    R  NN   N  II  NN   N  G    G  !!!           |
|           W    W  A    A  R    R  N N  N  II  N N  N  G       !!!           |
|           W WW W  AAAAAA  RRRRR   N  N N  II  N  N N  G  GGG   !            |
|           WW  WW  A    A  R   R   N   NN  II  N   NN  G    G                |
|           W    W  A    A  R    R  N    N  II  N    N   GGGG   !!!           |
|                                                                             |
|      For optimal performance we recommend to set                            |
|        NCORE= 4 - approx SQRT( number of cores)                             |
|      NCORE specifies how many cores store one orbital (NPAR=cpu/NCORE).     |
|      This setting can  greatly improve the performance of VASP for DFT.     |
|      The default,   NCORE=1            might be grossly inefficient         |
|      on modern multi-core architectures or massively parallel machines.     |
|      Do your own testing !!!!                                               |
|      Unfortunately you need to use the default for GW and RPA calculations. |
|      (for HF NCORE is supported but not extensively tested yet)             |
|                                                                             |
 ----------------------------------------------------------------------------- 


 ----------------------------------------------------------------------------- 
|                                                                             |
|           W    W    AA    RRRRR   N    N  II  N    N   GGGG   !!!           |
|           W    W   A  A   R    R  NN   N  II  NN   N  G    G  !!!           |
|           W    W  A    A  R    R  N N  N  II  N N  N  G       !!!           |
|           W WW W  AAAAAA  RRRRR   N  N N  II  N  N N  G  GGG   !            |
|           WW  WW  A    A  R   R   N   NN  II  N   NN  G    G                |
|           W    W  A    A  R    R  N    N  II  N    N   GGGG   !!!           |
|                                                                             |
|      You have enabled k-point parallelism (KPAR>1).                         |
|      This developmental code was originally  written by Paul Kent at ORNL,  |
|      and carefully double checked in Vienna.                                |
|      GW as well as linear response parallelism added by Martijn Marsman     |
|      and Georg Kresse.                                                      |
|      Carefully verify results versus KPAR=1.                                |
|      Report problems to Paul Kent and Vienna.                               |
|                                                                             |
 ----------------------------------------------------------------------------- 

 LDA part: xc-table for Pade appr. of Perdew
 found WAVECAR, reading the header
  number of k-points has changed, file:    30 present:   250
  trying to continue reading WAVECAR, but it might fail
 WARNING: stress and forces are not correct
 POSCAR, INCAR and KPOINTS ok, starting setup
 FFT: planning ...
 reading WAVECAR
 the WAVECAR file was read successfully
 reading imaginary part of occupancies ...
 charge-density read from file: unknown                                 
 reading imaginary part of occupancies ...
 magnetization density read from file 1
 reading imaginary part of occupancies ...
 magnetization density read from file 2
 reading imaginary part of occupancies ...
 magnetization density read from file 3
 entering main loop
       N       E                     dE             d eps       ncg     rms          ort
 gam= 0.000 g(H,U,f)=  0.158E+03 0.991E+01-0.379E-12 ort(H,U,f) = 0.000E+00 0.000E+00 0.000E+00
SDA:   1     0.985812962186E+02    0.98581E+02   -0.67301E+02  5250   0.168E+03 0.000E+00
 gam= 0.382 g(H,U,f)=  0.636E+02 0.618E+01 0.338E+00 ort(H,U,f) = 0.790E+02 0.569E+01 0.884E+00
DMP:   2     0.468879326728E+02   -0.51693E+02   -0.41106E+02  5250   0.701E+02 0.856E+02
 gam= 0.382 g(H,U,f)=  0.259E+02 0.455E+01 0.378E+00 ort(H,U,f) = 0.359E+02 0.558E+01 0.171E+01
DMP:   3     0.170610215910E+02   -0.29827E+02   -0.18917E+02  5250   0.308E+02 0.432E+02
 gam= 0.382 g(H,U,f)=  0.105E+02 0.327E+01 0.877E-01 ort(H,U,f) = 0.900E+01 0.454E+01-0.132E+00
DMP:   4     0.455876851898E+01   -0.12502E+02   -0.75788E+01  5250   0.138E+02 0.134E+02
 gam= 0.382 g(H,U,f)=  0.521E+01 0.220E+01 0.597E+00 ort(H,U,f) = 0.446E+01 0.401E+01-0.177E+00
DMP:   5    -0.119876001622E+01   -0.57575E+01   -0.44693E+01  5250   0.801E+01 0.829E+01
 gam= 0.382 g(H,U,f)=  0.238E+01 0.143E+01-0.116E+00 ort(H,U,f) = 0.250E+01 0.315E+01-0.132E+00
DMP:   6    -0.475970099883E+01   -0.35609E+01   -0.23181E+01  5250   0.369E+01 0.552E+01
 gam= 0.382 g(H,U,f)=  0.116E+01 0.860E+00 0.200E+00 ort(H,U,f) = 0.136E+01 0.214E+01 0.451E+00
DMP:   7    -0.691575621946E+01   -0.21561E+01   -0.14916E+01  5250   0.222E+01 0.396E+01
 gam= 0.382 g(H,U,f)=  0.488E+00 0.481E+00 0.119E-01 ort(H,U,f) = 0.680E+00 0.128E+01 0.748E-01
DMP:   8    -0.822867429699E+01   -0.13129E+01   -0.70243E+00  5250   0.980E+00 0.203E+01
 gam= 0.382 g(H,U,f)=  0.219E+00 0.269E+00 0.108E+00 ort(H,U,f) = 0.300E+00 0.750E+00 0.190E+00
DMP:   9    -0.887120436030E+01   -0.64253E+00   -0.42802E+00  5250   0.597E+00 0.124E+01
 gam= 0.382 g(H,U,f)=  0.101E+00 0.150E+00 0.267E-02 ort(H,U,f) = 0.145E+00 0.437E+00 0.586E-02
DMP:  10    -0.918525873975E+01   -0.31405E+00   -0.19125E+00  5250   0.253E+00 0.588E+00
 gam= 0.382 g(H,U,f)=  0.457E-01 0.834E-01 0.113E-01 ort(H,U,f) = 0.728E-01 0.252E+00 0.195E-01
DMP:  11    -0.936320530466E+01   -0.17795E+00   -0.10881E+00  5250   0.140E+00 0.344E+00
 gam= 0.382 g(H,U,f)=  0.199E-01 0.469E-01 0.154E-02 ort(H,U,f) = 0.342E-01 0.145E+00 0.350E-02
DMP:  12    -0.945571072960E+01   -0.92505E-01   -0.55193E-01  5250   0.684E-01 0.182E+00
 gam= 0.382 g(H,U,f)=  0.800E-02 0.258E-01 0.551E-03 ort(H,U,f) = 0.151E-01 0.804E-01 0.123E-02
DMP:  13    -0.950394412321E+01   -0.48233E-01   -0.28518E-01  5250   0.344E-01 0.967E-01
 gam= 0.382 g(H,U,f)=  0.315E-02 0.143E-01 0.436E-03 ort(H,U,f) = 0.598E-02 0.445E-01 0.106E-02
DMP:  14    -0.952922178586E+01   -0.25278E-01   -0.15029E-01  5250   0.179E-01 0.516E-01
 gam= 0.382 g(H,U,f)=  0.127E-02 0.804E-02 0.166E-03 ort(H,U,f) = 0.233E-02 0.250E-01 0.446E-03
DMP:  15    -0.954267471761E+01   -0.13453E-01   -0.80437E-02  5250   0.948E-02 0.278E-01
 gam= 0.382 g(H,U,f)=  0.527E-03 0.456E-02 0.268E-04 ort(H,U,f) = 0.923E-03 0.143E-01 0.841E-04
DMP:  16    -0.954995428592E+01   -0.72796E-02   -0.43901E-02  5250   0.512E-02 0.153E-01
 gam= 0.382 g(H,U,f)=  0.234E-03 0.256E-02-0.419E-06 ort(H,U,f) = 0.389E-03 0.820E-02 0.479E-05
DMP:  17    -0.955396096645E+01   -0.40067E-02   -0.24310E-02  5250   0.279E-02 0.859E-02
 gam= 0.382 g(H,U,f)=  0.107E-03 0.141E-02 0.504E-05 ort(H,U,f) = 0.182E-03 0.462E-02 0.184E-04
DMP:  18    -0.955618560346E+01   -0.22246E-02   -0.13438E-02  5250   0.152E-02 0.482E-02
 gam= 0.382 g(H,U,f)=  0.510E-04 0.756E-03 0.102E-04 ort(H,U,f) = 0.899E-04 0.255E-02 0.342E-04
DMP:  19    -0.955741429189E+01   -0.12287E-02   -0.73593E-03  5250   0.817E-03 0.268E-02
 gam= 0.382 g(H,U,f)=  0.246E-04 0.396E-03 0.104E-04 ort(H,U,f) = 0.466E-04 0.138E-02 0.362E-04
DMP:  20    -0.955808499950E+01   -0.67071E-03   -0.39515E-03  5250   0.431E-03 0.146E-02
 gam= 0.382 g(H,U,f)=  0.115E-04 0.199E-03 0.716E-05 ort(H,U,f) = 0.235E-04 0.711E-03 0.264E-04
DMP:  21    -0.955844081777E+01   -0.35582E-03   -0.20340E-03  5250   0.218E-03 0.761E-03
 gam= 0.382 g(H,U,f)=  0.519E-05 0.955E-04 0.375E-05 ort(H,U,f) = 0.111E-04 0.349E-03 0.146E-04
DMP:  22    -0.955862055893E+01   -0.17974E-03   -0.99078E-04  5250   0.104E-03 0.375E-03
 gam= 0.382 g(H,U,f)=  0.225E-05 0.438E-04 0.159E-05 ort(H,U,f) = 0.495E-05 0.164E-03 0.656E-05
DMP:  23    -0.955870651873E+01   -0.85960E-04   -0.45841E-04  5250   0.476E-04 0.175E-03
 gam= 0.382 g(H,U,f)=  0.931E-06 0.194E-04 0.580E-06 ort(H,U,f) = 0.205E-05 0.741E-04 0.254E-05
DMP:  24    -0.955874573515E+01   -0.39216E-04   -0.20378E-04  5250   0.209E-04 0.787E-04
 gam= 0.382 g(H,U,f)=  0.375E-06 0.835E-05 0.189E-06 ort(H,U,f) = 0.801E-06 0.325E-04 0.886E-06
DMP:  25    -0.955876299658E+01   -0.17261E-04   -0.87930E-05  5250   0.891E-05 0.342E-04
 gam= 0.382 g(H,U,f)=  0.149E-06 0.350E-05 0.545E-07 ort(H,U,f) = 0.300E-06 0.139E-04 0.274E-06
DMP:  26    -0.955877038559E+01   -0.73890E-05   -0.37000E-05  5250   0.371E-05 0.145E-04
 final diagonalization
   1 F= -.95587704E+01 E0= -.95588575E+01  d E =0.261270E-03  mag=    -0.0000    -0.0000     0.0000
