   2   2   1   0
  0.2779610E+02  0.4283936E-09  0.4283936E-09  0.4283936E-09  0.5000000E-15
  1.000000000000000E-004
  CAR 
 unknown system                          
     10.44373384    -11.34454594  301      4.17280413      1.00000000
    -11.345  0.0000E+00  0.0000E+00
    -11.272  0.0000E+00  0.0000E+00
    -11.199  0.0000E+00  0.0000E+00
    -11.127  0.0000E+00  0.0000E+00
    -11.054  0.0000E+00  0.0000E+00
    -10.981  0.0000E+00  0.0000E+00
    -10.909  0.0000E+00  0.0000E+00
    -10.836  0.0000E+00  0.0000E+00
    -10.764 -0.2160E-28 -0.1569E-29
    -10.691 -0.5173E-19 -0.3757E-20
    -10.618 -0.1779E-11 -0.1292E-12
    -10.546 -0.9120E-06 -0.6624E-07
    -10.473 -0.6406E-02 -0.4653E-03
    -10.400 -0.3696E+00 -0.2731E-01
    -10.328  0.6951E+01  0.4775E+00
    -10.255  0.2900E+02  0.2584E+01
    -10.183  0.2033E+02  0.4060E+01
    -10.110 -0.8035E+00  0.4002E+01
    -10.037 -0.2394E-01  0.4000E+01
     -9.965 -0.4672E-05  0.4000E+01
     -9.892 -0.1272E-10  0.4000E+01
     -9.819 -0.8990E-09  0.4000E+01
     -9.747 -0.5978E-04  0.4000E+01
     -9.674 -0.5414E-01  0.3996E+01
     -9.601  0.5242E+00  0.4034E+01
     -9.529  0.8989E+01  0.4687E+01
     -9.456  0.1278E+02  0.5615E+01
     -9.384  0.3430E+02  0.8106E+01
     -9.311  0.2721E+02  0.1008E+02
     -9.238 -0.1102E+01  0.1000E+02
     -9.166 -0.2982E-01  0.1000E+02
     -9.093 -0.4887E-05  0.1000E+02
     -9.020 -0.1043E-10  0.1000E+02
     -8.948  0.0000E+00  0.1000E+02
     -8.875  0.0000E+00  0.1000E+02
     -8.803  0.0000E+00  0.1000E+02
     -8.730  0.0000E+00  0.1000E+02
     -8.657  0.0000E+00  0.1000E+02
     -8.585  0.0000E+00  0.1000E+02
     -8.512  0.0000E+00  0.1000E+02
     -8.439  0.0000E+00  0.1000E+02
     -8.367  0.0000E+00  0.1000E+02
     -8.294  0.0000E+00  0.1000E+02
     -8.222  0.0000E+00  0.1000E+02
     -8.149  0.0000E+00  0.1000E+02
     -8.076  0.0000E+00  0.1000E+02
     -8.004  0.0000E+00  0.1000E+02
     -7.931  0.0000E+00  0.1000E+02
     -7.858  0.0000E+00  0.1000E+02
     -7.786 -0.1528E-38  0.1000E+02
     -7.713 -0.1043E-27  0.1000E+02
     -7.641 -0.1012E-18  0.1000E+02
     -7.568 -0.1318E-11  0.1000E+02
     -7.495 -0.2311E-06  0.1000E+02
     -7.423 -0.4443E-03  0.1000E+02
     -7.350  0.4966E-02  0.1000E+02
     -7.277  0.7487E-01  0.1001E+02
     -7.205 -0.8727E-02  0.1001E+02
     -7.132  0.1544E+00  0.1002E+02
     -7.060  0.6832E+00  0.1007E+02
     -6.987  0.3136E+00  0.1009E+02
     -6.914 -0.2092E-01  0.1009E+02
     -6.842  0.2295E-01  0.1009E+02
     -6.769  0.8958E+00  0.1015E+02
     -6.696 -0.1036E-01  0.1015E+02
     -6.624  0.1129E+01  0.1024E+02
     -6.551  0.1513E+01  0.1035E+02
     -6.478 -0.1031E-01  0.1034E+02
     -6.406 -0.2072E-01  0.1034E+02
     -6.333  0.3256E+00  0.1037E+02
     -6.261  0.3735E+00  0.1039E+02
     -6.188  0.2007E+01  0.1054E+02
     -6.115  0.1628E+01  0.1066E+02
     -6.043  0.8675E+00  0.1072E+02
     -5.970  0.1767E+01  0.1085E+02
     -5.897 -0.5843E-01  0.1084E+02
     -5.825  0.2021E+01  0.1099E+02
     -5.752  0.2136E+01  0.1115E+02
     -5.680  0.2536E+01  0.1133E+02
     -5.607  0.2043E+01  0.1148E+02
     -5.534  0.1058E+01  0.1156E+02
     -5.462  0.3032E+01  0.1178E+02
     -5.389  0.2080E+01  0.1193E+02
     -5.316  0.1064E+01  0.1200E+02
     -5.244 -0.6212E-01  0.1200E+02
     -5.171 -0.2047E-03  0.1200E+02
     -5.099 -0.6576E-08  0.1200E+02
     -5.026 -0.2781E-14  0.1200E+02
     -4.953  0.0000E+00  0.1200E+02
     -4.881  0.0000E+00  0.1200E+02
     -4.808  0.0000E+00  0.1200E+02
     -4.735  0.0000E+00  0.1200E+02
     -4.663  0.0000E+00  0.1200E+02
     -4.590  0.0000E+00  0.1200E+02
     -4.518  0.0000E+00  0.1200E+02
     -4.445  0.0000E+00  0.1200E+02
     -4.372  0.0000E+00  0.1200E+02
     -4.300  0.0000E+00  0.1200E+02
     -4.227  0.0000E+00  0.1200E+02
     -4.154  0.0000E+00  0.1200E+02
     -4.082  0.0000E+00  0.1200E+02
     -4.009  0.0000E+00  0.1200E+02
     -3.937  0.0000E+00  0.1200E+02
     -3.864  0.0000E+00  0.1200E+02
     -3.791  0.0000E+00  0.1200E+02
     -3.719  0.0000E+00  0.1200E+02
     -3.646  0.0000E+00  0.1200E+02
     -3.573  0.0000E+00  0.1200E+02
     -3.501  0.0000E+00  0.1200E+02
     -3.428  0.0000E+00  0.1200E+02
     -3.356  0.0000E+00  0.1200E+02
     -3.283  0.0000E+00  0.1200E+02
     -3.210  0.0000E+00  0.1200E+02
     -3.138  0.0000E+00  0.1200E+02
     -3.065  0.0000E+00  0.1200E+02
     -2.992  0.0000E+00  0.1200E+02
     -2.920  0.0000E+00  0.1200E+02
     -2.847  0.0000E+00  0.1200E+02
     -2.774  0.0000E+00  0.1200E+02
     -2.702  0.0000E+00  0.1200E+02
     -2.629  0.0000E+00  0.1200E+02
     -2.557  0.0000E+00  0.1200E+02
     -2.484  0.0000E+00  0.1200E+02
     -2.411  0.0000E+00  0.1200E+02
     -2.339  0.0000E+00  0.1200E+02
     -2.266  0.0000E+00  0.1200E+02
     -2.193  0.0000E+00  0.1200E+02
     -2.121  0.0000E+00  0.1200E+02
     -2.048  0.0000E+00  0.1200E+02
     -1.976  0.0000E+00  0.1200E+02
     -1.903  0.0000E+00  0.1200E+02
     -1.830 -0.1104E-33  0.1200E+02
     -1.758 -0.1653E-23  0.1200E+02
     -1.685 -0.3501E-15  0.1200E+02
     -1.612 -0.9789E-09  0.1200E+02
     -1.540 -0.3651E-04  0.1200E+02
     -1.467 -0.1486E-01  0.1200E+02
     -1.395  0.1606E+00  0.1201E+02
     -1.322  0.2009E+01  0.1216E+02
     -1.249  0.2810E+01  0.1236E+02
     -1.177  0.4109E+01  0.1266E+02
     -1.104  0.2688E+01  0.1285E+02
     -1.031  0.1952E+01  0.1300E+02
     -0.959  0.2514E+00  0.1301E+02
     -0.886  0.9940E+00  0.1309E+02
     -0.814  0.1574E+01  0.1320E+02
     -0.741  0.7817E+00  0.1326E+02
     -0.668  0.1211E+01  0.1335E+02
     -0.596 -0.5973E-01  0.1334E+02
     -0.523 -0.4009E-01  0.1334E+02
     -0.450  0.6792E+00  0.1339E+02
     -0.378  0.1332E+01  0.1348E+02
     -0.305  0.1556E+00  0.1350E+02
     -0.233  0.1712E+01  0.1362E+02
     -0.160  0.2004E-01  0.1362E+02
     -0.087 -0.5862E-02  0.1362E+02
     -0.015 -0.7570E-03  0.1362E+02
      0.058 -0.1809E-01  0.1362E+02
      0.131  0.5264E+00  0.1366E+02
      0.203  0.4328E+00  0.1369E+02
      0.276  0.1953E+00  0.1370E+02
      0.348 -0.1165E-01  0.1370E+02
      0.421 -0.5710E-04  0.1370E+02
      0.494 -0.1938E-01  0.1370E+02
      0.566  0.2981E+00  0.1372E+02
      0.639  0.1692E+01  0.1385E+02
      0.712 -0.4348E-01  0.1384E+02
      0.784 -0.4957E-01  0.1384E+02
      0.857  0.1564E+01  0.1395E+02
      0.930  0.1582E+01  0.1407E+02
      1.002  0.1870E+01  0.1420E+02
      1.075  0.8061E+00  0.1426E+02
      1.147 -0.1243E+00  0.1425E+02
      1.220  0.3779E+01  0.1453E+02
      1.293  0.3006E+01  0.1475E+02
      1.365  0.1051E+00  0.1475E+02
      1.438 -0.1415E-01  0.1475E+02
      1.511 -0.4691E-01  0.1475E+02
      1.583  0.7276E+00  0.1480E+02
      1.656  0.3148E+01  0.1503E+02
      1.728  0.3850E+01  0.1531E+02
      1.801  0.1722E+01  0.1543E+02
      1.874  0.2649E+00  0.1545E+02
      1.946  0.1626E+01  0.1557E+02
      2.019  0.1719E+01  0.1570E+02
      2.092  0.2284E+01  0.1586E+02
      2.164  0.1219E+01  0.1595E+02
      2.237  0.4472E+01  0.1628E+02
      2.309  0.3632E+01  0.1654E+02
      2.382  0.4931E+00  0.1658E+02
      2.455  0.1064E+00  0.1658E+02
      2.527 -0.1912E-01  0.1658E+02
      2.600 -0.3261E-01  0.1658E+02
      2.673  0.4436E+01  0.1690E+02
      2.745  0.1945E+01  0.1704E+02
      2.818  0.3213E+01  0.1728E+02
      2.890  0.3691E+00  0.1730E+02
      2.963  0.2298E+01  0.1747E+02
      3.036 -0.1321E-01  0.1747E+02
      3.108  0.2510E-01  0.1747E+02
      3.181  0.1311E+01  0.1757E+02
      3.254  0.1994E+01  0.1771E+02
      3.326  0.3493E+00  0.1774E+02
      3.399  0.2503E+00  0.1775E+02
      3.471  0.9125E+00  0.1782E+02
      3.544 -0.2635E-01  0.1782E+02
      3.617 -0.2523E-01  0.1782E+02
      3.689  0.1314E+01  0.1791E+02
      3.762  0.3358E+00  0.1794E+02
      3.835  0.6035E-01  0.1794E+02
      3.907  0.6036E+00  0.1799E+02
      3.980  0.4510E-01  0.1799E+02
      4.053 -0.7866E-02  0.1799E+02
      4.125  0.7010E-01  0.1799E+02
      4.198  0.9868E-01  0.1800E+02
      4.270  0.1430E-01  0.1800E+02
      4.343  0.6445E-01  0.1801E+02
      4.416 -0.2597E-02  0.1801E+02
      4.488 -0.6914E-04  0.1801E+02
      4.561 -0.8351E-08  0.1801E+02
      4.634 -0.1210E-13  0.1801E+02
      4.706  0.0000E+00  0.1801E+02
      4.779  0.0000E+00  0.1801E+02
      4.851  0.0000E+00  0.1801E+02
      4.924 -0.1839E-28  0.1801E+02
      4.997 -0.3598E-19  0.1801E+02
      5.069 -0.9512E-12  0.1801E+02
      5.142 -0.3425E-06  0.1801E+02
      5.215 -0.1427E-02  0.1801E+02
      5.287 -0.5629E-02  0.1801E+02
      5.360  0.5617E+00  0.1805E+02
      5.432  0.4874E+00  0.1808E+02
      5.505  0.7881E+00  0.1814E+02
      5.578  0.1041E+00  0.1815E+02
      5.650 -0.7455E-02  0.1815E+02
      5.723 -0.1371E-02  0.1815E+02
      5.796  0.2078E-02  0.1815E+02
      5.868  0.4452E+00  0.1818E+02
      5.941  0.3890E-01  0.1818E+02
      6.013 -0.5430E-02  0.1818E+02
      6.086 -0.9644E-02  0.1818E+02
      6.159  0.9601E+00  0.1825E+02
      6.231  0.7778E+00  0.1831E+02
      6.304  0.2098E+01  0.1846E+02
      6.377  0.4774E+01  0.1881E+02
      6.449  0.1776E+01  0.1893E+02
      6.522  0.1708E+01  0.1906E+02
      6.594  0.1955E+01  0.1920E+02
      6.667 -0.6900E-01  0.1920E+02
      6.740  0.5831E+00  0.1924E+02
      6.812  0.1059E+01  0.1931E+02
      6.885  0.4850E-01  0.1932E+02
      6.958 -0.1964E-01  0.1932E+02
      7.030  0.9855E+00  0.1939E+02
      7.103  0.5471E+00  0.1943E+02
      7.175  0.1059E+01  0.1950E+02
      7.248  0.1612E+01  0.1962E+02
      7.321  0.3389E+01  0.1987E+02
      7.393  0.1594E+01  0.1998E+02
      7.466  0.3968E+01  0.2027E+02
      7.539  0.1335E+01  0.2037E+02
      7.611 -0.1948E-01  0.2037E+02
      7.684 -0.3190E-02  0.2037E+02
      7.757 -0.5921E-03  0.2037E+02
      7.829  0.9839E-02  0.2037E+02
      7.902  0.3217E-01  0.2037E+02
      7.974 -0.7267E-02  0.2037E+02
      8.047  0.1070E+00  0.2038E+02
      8.120  0.2096E+00  0.2039E+02
      8.192 -0.9062E-01  0.2039E+02
      8.265  0.2440E+01  0.2056E+02
      8.338  0.1097E+01  0.2064E+02
      8.410 -0.7254E-01  0.2064E+02
      8.483  0.1220E+00  0.2065E+02
      8.555  0.8567E+00  0.2071E+02
      8.628  0.1256E+00  0.2072E+02
      8.701  0.3560E+00  0.2074E+02
      8.773  0.3249E+00  0.2077E+02
      8.846  0.1174E+01  0.2085E+02
      8.919  0.8917E+00  0.2092E+02
      8.991  0.1843E+00  0.2093E+02
      9.064 -0.2272E-01  0.2093E+02
      9.136  0.1738E+00  0.2094E+02
      9.209  0.3349E+00  0.2097E+02
      9.282 -0.1679E-01  0.2097E+02
      9.354 -0.4298E-02  0.2096E+02
      9.427  0.5940E-01  0.2097E+02
      9.500  0.4338E+00  0.2100E+02
      9.572 -0.6464E-02  0.2100E+02
      9.645 -0.9496E-03  0.2100E+02
      9.717 -0.2079E-06  0.2100E+02
      9.790 -0.5294E-12  0.2100E+02
      9.863  0.0000E+00  0.2100E+02
      9.935  0.0000E+00  0.2100E+02
     10.008  0.0000E+00  0.2100E+02
     10.081  0.0000E+00  0.2100E+02
     10.153  0.0000E+00  0.2100E+02
     10.226  0.0000E+00  0.2100E+02
     10.298  0.0000E+00  0.2100E+02
     10.371  0.0000E+00  0.2100E+02
     10.444  0.0000E+00  0.2100E+02
     10.44373384    -11.34454594  301      4.17280413      1.00000000
    -11.345  0.0000E+00  0.0000E+00  0.0000E+00  0.0000E+00  0.0000E+00  0.0000E+00  0.0000E+00  0.0000E+00  0.0000E+00  0.0000E+00  0.0000E+00  0.0000E+00  0.0000E+00  0.0000E+00  0.0000E+00  0.0000E+00  0.0000E+00  0.0000E+00  0.0000E+00  0.0000E+00  0.0000E+00  0.0000E+00  0.0000E+00  0.0000E+00  0.0000E+00  0.0000E+00  0.0000E+00  0.0000E+00  0.0000E+00  0.0000E+00  0.0000E+00  0.0000E+00  0.0000E+00  0.0000E+00  0.0000E+00  0.0000E+00
    -11.272  0.0000E+00  0.0000E+00  0.0000E+00  0.0000E+00  0.0000E+00  0.0000E+00  0.0000E+00  0.0000E+00  0.0000E+00  0.0000E+00  0.0000E+00  0.0000E+00  0.0000E+00  0.0000E+00  0.0000E+00  0.0000E+00  0.0000E+00  0.0000E+00  0.0000E+00  0.0000E+00  0.0000E+00  0.0000E+00  0.0000E+00  0.0000E+00  0.0000E+00  0.0000E+00  0.0000E+00  0.0000E+00  0.0000E+00  0.0000E+00  0.0000E+00  0.0000E+00  0.0000E+00  0.0000E+00  0.0000E+00  0.0000E+00
    -11.199  0.0000E+00  0.0000E+00  0.0000E+00  0.0000E+00  0.0000E+00  0.0000E+00  0.0000E+00  0.0000E+00  0.0000E+00  0.0000E+00  0.0000E+00  0.0000E+00  0.0000E+00  0.0000E+00  0.0000E+00  0.0000E+00  0.0000E+00  0.0000E+00  0.0000E+00  0.0000E+00  0.0000E+00  0.0000E+00  0.0000E+00  0.0000E+00  0.0000E+00  0.0000E+00  0.0000E+00  0.0000E+00  0.0000E+00  0.0000E+00  0.0000E+00  0.0000E+00  0.0000E+00  0.0000E+00  0.0000E+00  0.0000E+00
    -11.127  0.0000E+00  0.0000E+00  0.0000E+00  0.0000E+00  0.0000E+00  0.0000E+00  0.0000E+00  0.0000E+00  0.0000E+00  0.0000E+00  0.0000E+00  0.0000E+00  0.0000E+00  0.0000E+00  0.0000E+00  0.0000E+00  0.0000E+00  0.0000E+00  0.0000E+00  0.0000E+00  0.0000E+00  0.0000E+00  0.0000E+00  0.0000E+00  0.0000E+00  0.0000E+00  0.0000E+00  0.0000E+00  0.0000E+00  0.0000E+00  0.0000E+00  0.0000E+00  0.0000E+00  0.0000E+00  0.0000E+00  0.0000E+00
    -11.054  0.0000E+00  0.0000E+00  0.0000E+00  0.0000E+00  0.0000E+00  0.0000E+00  0.0000E+00  0.0000E+00  0.0000E+00  0.0000E+00  0.0000E+00  0.0000E+00  0.0000E+00  0.0000E+00  0.0000E+00  0.0000E+00  0.0000E+00  0.0000E+00  0.0000E+00  0.0000E+00  0.0000E+00  0.0000E+00  0.0000E+00  0.0000E+00  0.0000E+00  0.0000E+00  0.0000E+00  0.0000E+00  0.0000E+00  0.0000E+00  0.0000E+00  0.0000E+00  0.0000E+00  0.0000E+00  0.0000E+00  0.0000E+00
    -10.981  0.0000E+00  0.0000E+00  0.0000E+00  0.0000E+00  0.0000E+00  0.0000E+00  0.0000E+00  0.0000E+00  0.0000E+00  0.0000E+00  0.0000E+00  0.0000E+00  0.0000E+00  0.0000E+00  0.0000E+00  0.0000E+00  0.0000E+00  0.0000E+00  0.0000E+00  0.0000E+00  0.0000E+00  0.0000E+00  0.0000E+00  0.0000E+00  0.0000E+00  0.0000E+00  0.0000E+00  0.0000E+00  0.0000E+00  0.0000E+00  0.0000E+00  0.0000E+00  0.0000E+00  0.0000E+00  0.0000E+00  0.0000E+00
    -10.909  0.0000E+00  0.0000E+00  0.0000E+00  0.0000E+00  0.0000E+00  0.0000E+00  0.0000E+00  0.0000E+00  0.0000E+00  0.0000E+00  0.0000E+00  0.0000E+00  0.0000E+00  0.0000E+00  0.0000E+00  0.0000E+00  0.0000E+00  0.0000E+00  0.0000E+00  0.0000E+00  0.0000E+00  0.0000E+00  0.0000E+00  0.0000E+00  0.0000E+00  0.0000E+00  0.0000E+00  0.0000E+00  0.0000E+00  0.0000E+00  0.0000E+00  0.0000E+00  0.0000E+00  0.0000E+00  0.0000E+00  0.0000E+00
    -10.836  0.0000E+00  0.0000E+00  0.0000E+00  0.0000E+00  0.0000E+00  0.0000E+00  0.0000E+00  0.0000E+00  0.0000E+00  0.0000E+00  0.0000E+00  0.0000E+00  0.0000E+00  0.0000E+00  0.0000E+00  0.0000E+00  0.0000E+00  0.0000E+00  0.0000E+00  0.0000E+00  0.0000E+00  0.0000E+00  0.0000E+00  0.0000E+00  0.0000E+00  0.0000E+00  0.0000E+00  0.0000E+00  0.0000E+00  0.0000E+00  0.0000E+00  0.0000E+00  0.0000E+00  0.0000E+00  0.0000E+00  0.0000E+00
    -10.764 -0.1333E-32 -0.1706E-33  0.1191E-32  0.4483E-34 -0.1499E-32  0.5706E-33  0.1334E-32 -0.7849E-36 -0.2155E-31  0.5274E-32  0.2052E-31 -0.3748E-33 -0.1366E-31  0.4099E-32  0.1292E-31 -0.9443E-34 -0.8295E-29  0.1944E-29  0.7910E-29 -0.1682E-30 -0.5856E-29  0.1376E-29  0.5660E-29 -0.4707E-31 -0.1074E-29  0.6903E-30 -0.6970E-30  0.4054E-31 -0.6157E-30  0.3981E-30  0.3830E-30  0.2218E-31 -0.4439E-29 -0.1060E-29 -0.4231E-29 -0.8811E-31
    -10.691 -0.3637E-23 -0.1073E-24  0.3228E-23  0.1141E-24 -0.4030E-23  0.1691E-23  0.3491E-23 -0.2017E-25 -0.5161E-22  0.1323E-22  0.4857E-22 -0.1319E-23 -0.3141E-22  0.9476E-23  0.2955E-22 -0.3962E-24 -0.2000E-19  0.4955E-20  0.1884E-19 -0.5892E-21 -0.1363E-19  0.3199E-20  0.1313E-19 -0.1952E-21 -0.2535E-20  0.1595E-20 -0.1522E-20  0.1589E-21 -0.1726E-20  0.1127E-20  0.1016E-20  0.6625E-22 -0.1069E-19 -0.2695E-20 -0.1006E-19 -0.3112E-21
    -10.618 -0.1494E-15  0.1150E-16  0.1318E-15  0.3276E-17 -0.1604E-15  0.7328E-16  0.1353E-15 -0.1949E-17 -0.1766E-14  0.4837E-15  0.1636E-14 -0.6535E-16 -0.1025E-14  0.3138E-15  0.9561E-15 -0.2307E-16 -0.6918E-12  0.1851E-12  0.6406E-12 -0.2906E-13 -0.4521E-12  0.1072E-12  0.4333E-12 -0.1126E-13 -0.8628E-13  0.5303E-13 -0.4573E-13  0.8749E-14 -0.7154E-13  0.4677E-13  0.4040E-13  0.2644E-14 -0.3695E-12 -0.1005E-12 -0.3420E-12 -0.1549E-13
    -10.546 -0.9653E-10  0.1754E-10  0.8440E-10  0.5102E-12 -0.9736E-10  0.4739E-10  0.8025E-10 -0.2057E-11 -0.8924E-09  0.2664E-09  0.8076E-09 -0.4641E-10 -0.4925E-09  0.1557E-09  0.4537E-09 -0.1880E-10 -0.3555E-06  0.1049E-06  0.3212E-06 -0.2063E-07 -0.2221E-06  0.5441E-07  0.2108E-06 -0.9127E-08 -0.4429E-07  0.2663E-07 -0.1919E-07  0.6848E-08 -0.4512E-07  0.2918E-07  0.2507E-07  0.1441E-08 -0.1903E-06 -0.5704E-07 -0.1719E-06 -0.1111E-07
    -10.473 -0.9253E-06  0.2660E-06  0.7881E-06 -0.1420E-07 -0.8240E-06  0.4205E-06  0.6642E-06 -0.2422E-07 -0.6032E-05  0.1998E-05  0.5244E-05 -0.4222E-06 -0.3161E-05  0.1062E-05  0.2850E-05 -0.1888E-06 -0.2487E-02  0.8231E-03  0.2147E-02 -0.1901E-03 -0.1475E-02  0.3891E-03  0.1371E-02 -0.9141E-04 -0.3180E-03  0.1863E-03 -0.9255E-04  0.6776E-04 -0.4045E-03  0.2539E-03  0.2270E-03  0.9719E-05 -0.1342E-02 -0.4515E-03 -0.1158E-02 -0.1036E-03
    -10.400 -0.9640E-04  0.3668E-04  0.6454E-04 -0.3053E-05 -0.6121E-04  0.3224E-04  0.4220E-04 -0.2778E-05 -0.2744E-03  0.9127E-04  0.1708E-03 -0.2267E-04 -0.1241E-03  0.4580E-04  0.9476E-04 -0.1040E-04 -0.1363E+00  0.4265E-01  0.7851E-01 -0.1020E-01 -0.6959E-01  0.2125E-01  0.5416E-01 -0.4841E-02 -0.2389E-01  0.6505E-02  0.2050E-02  0.4626E-02 -0.4300E-01  0.2260E-01  0.2363E-01 -0.1307E-02 -0.7699E-01 -0.2466E-01 -0.4439E-01 -0.5515E-02
    -10.328  0.1723E-02 -0.7090E-03 -0.1349E-02  0.5333E-04  0.1148E-02 -0.6490E-03 -0.9056E-03  0.4216E-04  0.6235E-02 -0.2201E-02 -0.4646E-02  0.5202E-03  0.2937E-02 -0.1125E-02 -0.2525E-02  0.2274E-03  0.2793E+01 -0.1010E+01 -0.2081E+01  0.2435E+00  0.1381E+01 -0.4900E+00 -0.1368E+01  0.1076E+00  0.2733E+00 -0.1825E+00  0.1469E-01 -0.9088E-01  0.5676E+00 -0.4421E+00 -0.4396E+00  0.8184E-03  0.1527E+01  0.5788E+00  0.1164E+01  0.1323E+00
    -10.255  0.5155E-02 -0.3778E-03 -0.4079E-03  0.6223E-04  0.3426E-02 -0.9537E-03 -0.6812E-03  0.3024E-03  0.9332E-02  0.3504E-03  0.1119E-02 -0.9529E-04  0.4359E-02 -0.2212E-04 -0.4175E-03  0.9093E-04  0.7379E+01  0.4199E+00  0.1008E+01 -0.2576E+00  0.5455E+01 -0.1284E+00 -0.3613E+00  0.1927E-01  0.4452E+01  0.3438E+00 -0.4344E+00 -0.1963E+00  0.5884E+01 -0.8791E+00 -0.1172E+01  0.4470E+00  0.4730E+01 -0.2461E+00 -0.6335E+00 -0.1608E+00
    -10.183  0.5544E-03  0.1207E-03  0.1834E-03  0.1576E-04  0.1238E-02  0.4720E-03  0.7768E-04 -0.2313E-03  0.4745E-03  0.1195E-03  0.4020E-03 -0.4212E-04  0.1188E-02  0.5221E-04  0.5968E-03  0.1425E-03  0.2830E+01  0.5611E+00  0.1090E+01 -0.8665E-02  0.4905E+01  0.7745E+00  0.1789E+01 -0.9942E-01  0.4906E+01 -0.2566E+00  0.3552E+00  0.3676E+00  0.4845E+01  0.1381E+01  0.1925E+01 -0.4785E+00  0.2341E+01 -0.5440E+00 -0.9210E+00  0.4035E-01
    -10.110 -0.3838E-04 -0.3540E-05 -0.5392E-05 -0.1173E-05 -0.5713E-04 -0.1674E-04  0.3922E-05  0.5652E-05 -0.4811E-04 -0.5708E-05 -0.2159E-04  0.1244E-05 -0.6172E-04  0.1713E-05 -0.2838E-04 -0.6867E-05 -0.1272E+00 -0.5664E-02 -0.4500E-01 -0.4436E-02 -0.1987E+00 -0.4000E-02 -0.9199E-01 -0.5626E-02 -0.1806E+00  0.3105E-01  0.3000E-01 -0.1425E-02 -0.1753E+00 -0.5451E-01 -0.2493E-01  0.8879E-02 -0.1002E+00  0.6943E-02  0.3681E-01 -0.5632E-02
    -10.037 -0.4137E-06 -0.5308E-07 -0.1073E-06 -0.2034E-08 -0.1278E-05 -0.4412E-06 -0.2696E-06  0.3763E-06 -0.3249E-06 -0.1903E-08 -0.8828E-07  0.4575E-07 -0.1062E-05 -0.1541E-06 -0.2565E-06 -0.1094E-06 -0.3035E-02 -0.1311E-02 -0.1057E-02  0.2352E-03 -0.5392E-02 -0.1971E-02 -0.7933E-03  0.5402E-03 -0.6087E-02 -0.7104E-03 -0.2345E-02 -0.9704E-03 -0.6296E-02 -0.1316E-02 -0.4209E-02  0.9296E-03 -0.2570E-02  0.1213E-02  0.9516E-03  0.1475E-03
     -9.965 -0.6141E-10 -0.1379E-10 -0.2758E-10  0.1839E-11 -0.2246E-09 -0.7090E-10 -0.8437E-10  0.7014E-10 -0.4455E-10 -0.7707E-11 -0.6563E-11  0.1191E-10 -0.1677E-09 -0.5688E-10 -0.7199E-11 -0.1093E-10 -0.5817E-06 -0.3592E-06 -0.1778E-06  0.6689E-07 -0.9772E-06 -0.5253E-06  0.2880E-07  0.1341E-06 -0.1199E-05 -0.2743E-06 -0.7023E-06 -0.2170E-06 -0.1310E-05 -0.2172E-06 -0.1047E-05  0.1887E-06 -0.4976E-06  0.3215E-06  0.1631E-06  0.4749E-07
     -9.892 -0.1350E-15 -0.4106E-16 -0.8004E-16  0.6534E-17 -0.5587E-15 -0.1703E-15 -0.2764E-15  0.1656E-15 -0.1013E-15 -0.3290E-16 -0.1528E-17  0.3153E-16 -0.3990E-15 -0.1942E-15  0.3974E-16 -0.1521E-16 -0.1597E-11 -0.1151E-11 -0.4292E-12  0.1805E-12 -0.2521E-11 -0.1645E-11  0.3528E-12  0.3568E-12 -0.3255E-11 -0.9435E-12 -0.2289E-11 -0.5585E-12 -0.3690E-11 -0.5502E-12 -0.3203E-11  0.4682E-12 -0.1373E-11  0.1017E-11  0.3997E-12  0.1314E-12
     -9.819 -0.1111E-12 -0.3176E-13 -0.1017E-12  0.8717E-14 -0.1940E-12 -0.1768E-12  0.3879E-13  0.1277E-13 -0.1300E-11 -0.3620E-12 -0.1232E-11  0.1005E-13 -0.8963E-12 -0.1168E-12 -0.8859E-12  0.1806E-13 -0.2859E-09 -0.7637E-10 -0.2715E-09 -0.4451E-11 -0.2614E-09  0.5371E-10 -0.2537E-09  0.4943E-11 -0.6775E-10 -0.4088E-10  0.4796E-10  0.1749E-11 -0.1625E-09 -0.6269E-10  0.1456E-09  0.4547E-11 -0.5102E-10  0.8820E-11  0.4841E-10  0.2055E-11
     -9.747 -0.1075E-07 -0.3667E-08 -0.9492E-08  0.1303E-08 -0.1459E-07 -0.1285E-07  0.1431E-08  0.1871E-08 -0.8454E-07 -0.2546E-07 -0.7850E-07  0.1463E-08 -0.5593E-07 -0.7328E-08 -0.5505E-07  0.2643E-08 -0.1908E-04 -0.5606E-05 -0.1770E-04 -0.6512E-06 -0.1712E-04  0.3823E-05 -0.1639E-04  0.7261E-06 -0.4274E-05 -0.2579E-05  0.2606E-05  0.2541E-06 -0.1116E-04 -0.4651E-05  0.9577E-05  0.6672E-06 -0.3524E-05  0.7520E-06  0.3189E-05  0.2989E-06
     -9.674 -0.1552E-04 -0.6109E-05 -0.1320E-04  0.2248E-05 -0.1539E-04 -0.1304E-04 -0.2830E-06  0.3031E-05 -0.7293E-04 -0.2502E-04 -0.6525E-04  0.2360E-05 -0.4477E-04 -0.5902E-05 -0.4370E-04  0.4283E-05 -0.1740E-01 -0.5948E-02 -0.1549E-01 -0.1074E-02 -0.1509E-01  0.3877E-02 -0.1410E-01  0.1195E-02 -0.3500E-02 -0.2116E-02  0.1496E-02  0.4087E-03 -0.1064E-01 -0.4979E-02  0.8503E-02  0.1099E-02 -0.3417E-02  0.9815E-03  0.2855E-02  0.4891E-03
     -9.601  0.7748E-05 -0.2389E-04  0.3609E-04 -0.1594E-04  0.1358E-03  0.1166E-03 -0.1208E-04 -0.3370E-04  0.8265E-03  0.2378E-03  0.8030E-03 -0.2548E-04  0.5678E-03  0.7447E-04  0.5617E-03 -0.4608E-04  0.1641E+00  0.4137E-01  0.1701E+00  0.1014E-01  0.1555E+00 -0.2894E-01  0.1578E+00 -0.1172E-01  0.4176E-01  0.2562E-01 -0.2898E-01 -0.4362E-02  0.9197E-01  0.3293E-01 -0.9016E-01 -0.1097E-01  0.2797E-01 -0.6054E-02 -0.3211E-01 -0.4731E-02
     -9.529  0.4948E-02  0.2522E-02  0.3964E-02 -0.5250E-03  0.2902E-02  0.2518E-02  0.3265E-03 -0.5100E-03  0.1066E-01  0.4655E-02  0.8924E-02 -0.3976E-03  0.5581E-02  0.7633E-03  0.5480E-02 -0.7384E-03  0.2987E+01  0.1390E+01  0.2520E+01  0.2135E+00  0.2415E+01 -0.8658E+00  0.2188E+01 -0.2229E+00  0.4341E+00  0.3116E+00 -0.1272E-01 -0.5899E-01  0.1962E+01  0.1170E+01 -0.1427E+01 -0.2094E+00  0.5445E+00 -0.3024E+00 -0.5455E+00 -0.9588E-01
     -9.456  0.6186E-02  0.4140E-03  0.4530E-03  0.1022E-03  0.2208E-02  0.2731E-03 -0.1627E-03  0.1503E-03  0.7721E-02 -0.9704E-03 -0.2260E-02 -0.8919E-04  0.2655E-02 -0.1122E-03 -0.1544E-03  0.2682E-04  0.4155E+01 -0.5837E+00 -0.1200E+01 -0.9809E-01  0.2425E+01  0.2060E+00 -0.9083E-01 -0.1702E-01  0.5390E+00 -0.4017E+00 -0.1437E+00 -0.2015E+00  0.2524E+01  0.5580E-02  0.3448E+00  0.1280E+00  0.2510E+01  0.1133E+01  0.1835E+01  0.6376E-01
     -9.384  0.3130E-02 -0.1018E-02 -0.1320E-02  0.2431E-03  0.3547E-02 -0.1128E-02  0.1795E-02  0.1607E-03  0.3604E-02 -0.1303E-02 -0.2717E-02 -0.1148E-03  0.3652E-02  0.8784E-03 -0.2297E-02  0.1213E-03  0.3944E+01 -0.7503E+00 -0.1810E+01 -0.2773E+00  0.6073E+01  0.1482E+01 -0.2636E+01  0.5483E-01  0.9032E+01  0.7947E+00  0.1772E+01 -0.8871E-01  0.6315E+01 -0.1350E+01  0.2563E+01  0.6084E-01  0.7944E+01  0.8104E+00  0.1796E+01  0.1470E-01
     -9.311  0.7464E-03  0.2174E-04 -0.1030E-03 -0.5837E-04  0.1485E-02 -0.3351E-04  0.4452E-03  0.2900E-04  0.4886E-03  0.6529E-04  0.1635E-03 -0.1584E-04  0.1178E-02  0.1689E-03  0.1796E-04 -0.3268E-04  0.2029E+01 -0.1299E+00  0.2462E+00  0.1970E+00  0.4103E+01 -0.9917E+00  0.3275E+00  0.1880E+00  0.7786E+01 -0.6966E+00 -0.1605E+01  0.2791E+00  0.4855E+01  0.8857E-01 -0.1738E+01  0.6093E-01  0.7828E+01 -0.1440E+01 -0.2725E+01  0.2526E-01
     -9.238 -0.4387E-04  0.1930E-05  0.7851E-05  0.1821E-05 -0.7431E-04  0.6846E-05 -0.3327E-04 -0.1790E-05 -0.2877E-04  0.1526E-05  0.2101E-05  0.8125E-06 -0.6019E-04 -0.1304E-04  0.9025E-05  0.1195E-05 -0.8366E-01  0.7963E-02 -0.1365E-02 -0.6460E-02 -0.1750E+00  0.1988E-01  0.5710E-02 -0.4124E-02 -0.3405E+00  0.2241E-01  0.4411E-01 -0.7533E-02 -0.1937E+00  0.8209E-02  0.2307E-01 -0.3644E-02 -0.2834E+00  0.2721E-01  0.5590E-01 -0.3793E-02
     -9.166 -0.4782E-06  0.1887E-07  0.1446E-06  0.5547E-07 -0.1052E-05 -0.1383E-06  0.2582E-06 -0.1706E-07 -0.6323E-06 -0.5270E-07 -0.1426E-06  0.1527E-07 -0.9433E-06  0.1047E-06 -0.2488E-06  0.1840E-07 -0.2420E-02  0.1631E-03 -0.3859E-03 -0.2469E-03 -0.4138E-02  0.1845E-02 -0.1073E-02 -0.3713E-03 -0.7114E-02  0.1139E-02  0.2752E-02 -0.4100E-03 -0.5422E-02 -0.5812E-03  0.3840E-02 -0.1327E-04 -0.1010E-01  0.2697E-02  0.5009E-02  0.5713E-04
     -9.093 -0.5419E-10 -0.1241E-11  0.1327E-10  0.5480E-11 -0.1600E-09 -0.2413E-10  0.6514E-10 -0.2186E-11 -0.9839E-10 -0.1285E-10 -0.2811E-10  0.4330E-11 -0.1413E-09  0.2606E-10 -0.4084E-10  0.1224E-11 -0.3870E-06  0.3623E-08 -0.7514E-07 -0.3234E-07 -0.6657E-06  0.3311E-06 -0.1885E-06 -0.6900E-07 -0.1039E-05  0.1252E-06  0.3865E-06 -0.7932E-07 -0.9274E-06 -0.1118E-06  0.7225E-06  0.2945E-08 -0.1767E-05  0.5619E-06  0.9773E-06  0.3552E-07
     -9.020 -0.8740E-16 -0.7216E-17  0.1350E-16  0.5988E-17 -0.3398E-15 -0.5050E-16  0.1622E-15 -0.4572E-17 -0.2016E-15 -0.3392E-16 -0.6512E-16  0.1209E-16 -0.2932E-15  0.6799E-16 -0.8271E-16 -0.8620E-19 -0.7914E-12 -0.3961E-13 -0.1788E-12 -0.5143E-13 -0.1424E-11  0.7416E-12 -0.4159E-12 -0.1556E-12 -0.2006E-11  0.1450E-12  0.6693E-12 -0.1802E-12 -0.2049E-11 -0.2612E-12  0.1645E-11  0.1034E-13 -0.3944E-11  0.1396E-11  0.2316E-11  0.1189E-12
     -8.948  0.0000E+00  0.0000E+00  0.0000E+00  0.0000E+00  0.0000E+00  0.0000E+00  0.0000E+00  0.0000E+00  0.0000E+00  0.0000E+00  0.0000E+00  0.0000E+00  0.0000E+00  0.0000E+00  0.0000E+00  0.0000E+00  0.0000E+00  0.0000E+00  0.0000E+00  0.0000E+00  0.0000E+00  0.0000E+00  0.0000E+00  0.0000E+00  0.0000E+00  0.0000E+00  0.0000E+00  0.0000E+00  0.0000E+00  0.0000E+00  0.0000E+00  0.0000E+00  0.0000E+00  0.0000E+00  0.0000E+00  0.0000E+00
     -8.875  0.0000E+00  0.0000E+00  0.0000E+00  0.0000E+00  0.0000E+00  0.0000E+00  0.0000E+00  0.0000E+00  0.0000E+00  0.0000E+00  0.0000E+00  0.0000E+00  0.0000E+00  0.0000E+00  0.0000E+00  0.0000E+00  0.0000E+00  0.0000E+00  0.0000E+00  0.0000E+00  0.0000E+00  0.0000E+00  0.0000E+00  0.0000E+00  0.0000E+00  0.0000E+00  0.0000E+00  0.0000E+00  0.0000E+00  0.0000E+00  0.0000E+00  0.0000E+00  0.0000E+00  0.0000E+00  0.0000E+00  0.0000E+00
     -8.803  0.0000E+00  0.0000E+00  0.0000E+00  0.0000E+00  0.0000E+00  0.0000E+00  0.0000E+00  0.0000E+00  0.0000E+00  0.0000E+00  0.0000E+00  0.0000E+00  0.0000E+00  0.0000E+00  0.0000E+00  0.0000E+00  0.0000E+00  0.0000E+00  0.0000E+00  0.0000E+00  0.0000E+00  0.0000E+00  0.0000E+00  0.0000E+00  0.0000E+00  0.0000E+00  0.0000E+00  0.0000E+00  0.0000E+00  0.0000E+00  0.0000E+00  0.0000E+00  0.0000E+00  0.0000E+00  0.0000E+00  0.0000E+00
     -8.730  0.0000E+00  0.0000E+00  0.0000E+00  0.0000E+00  0.0000E+00  0.0000E+00  0.0000E+00  0.0000E+00  0.0000E+00  0.0000E+00  0.0000E+00  0.0000E+00  0.0000E+00  0.0000E+00  0.0000E+00  0.0000E+00  0.0000E+00  0.0000E+00  0.0000E+00  0.0000E+00  0.0000E+00  0.0000E+00  0.0000E+00  0.0000E+00  0.0000E+00  0.0000E+00  0.0000E+00  0.0000E+00  0.0000E+00  0.0000E+00  0.0000E+00  0.0000E+00  0.0000E+00  0.0000E+00  0.0000E+00  0.0000E+00
     -8.657  0.0000E+00  0.0000E+00  0.0000E+00  0.0000E+00  0.0000E+00  0.0000E+00  0.0000E+00  0.0000E+00  0.0000E+00  0.0000E+00  0.0000E+00  0.0000E+00  0.0000E+00  0.0000E+00  0.0000E+00  0.0000E+00  0.0000E+00  0.0000E+00  0.0000E+00  0.0000E+00  0.0000E+00  0.0000E+00  0.0000E+00  0.0000E+00  0.0000E+00  0.0000E+00  0.0000E+00  0.0000E+00  0.0000E+00  0.0000E+00  0.0000E+00  0.0000E+00  0.0000E+00  0.0000E+00  0.0000E+00  0.0000E+00
     -8.585  0.0000E+00  0.0000E+00  0.0000E+00  0.0000E+00  0.0000E+00  0.0000E+00  0.0000E+00  0.0000E+00  0.0000E+00  0.0000E+00  0.0000E+00  0.0000E+00  0.0000E+00  0.0000E+00  0.0000E+00  0.0000E+00  0.0000E+00  0.0000E+00  0.0000E+00  0.0000E+00  0.0000E+00  0.0000E+00  0.0000E+00  0.0000E+00  0.0000E+00  0.0000E+00  0.0000E+00  0.0000E+00  0.0000E+00  0.0000E+00  0.0000E+00  0.0000E+00  0.0000E+00  0.0000E+00  0.0000E+00  0.0000E+00
     -8.512  0.0000E+00  0.0000E+00  0.0000E+00  0.0000E+00  0.0000E+00  0.0000E+00  0.0000E+00  0.0000E+00  0.0000E+00  0.0000E+00  0.0000E+00  0.0000E+00  0.0000E+00  0.0000E+00  0.0000E+00  0.0000E+00  0.0000E+00  0.0000E+00  0.0000E+00  0.0000E+00  0.0000E+00  0.0000E+00  0.0000E+00  0.0000E+00  0.0000E+00  0.0000E+00  0.0000E+00  0.0000E+00  0.0000E+00  0.0000E+00  0.0000E+00  0.0000E+00  0.0000E+00  0.0000E+00  0.0000E+00  0.0000E+00
     -8.439  0.0000E+00  0.0000E+00  0.0000E+00  0.0000E+00  0.0000E+00  0.0000E+00  0.0000E+00  0.0000E+00  0.0000E+00  0.0000E+00  0.0000E+00  0.0000E+00  0.0000E+00  0.0000E+00  0.0000E+00  0.0000E+00  0.0000E+00  0.0000E+00  0.0000E+00  0.0000E+00  0.0000E+00  0.0000E+00  0.0000E+00  0.0000E+00  0.0000E+00  0.0000E+00  0.0000E+00  0.0000E+00  0.0000E+00  0.0000E+00  0.0000E+00  0.0000E+00  0.0000E+00  0.0000E+00  0.0000E+00  0.0000E+00
     -8.367  0.0000E+00  0.0000E+00  0.0000E+00  0.0000E+00  0.0000E+00  0.0000E+00  0.0000E+00  0.0000E+00  0.0000E+00  0.0000E+00  0.0000E+00  0.0000E+00  0.0000E+00  0.0000E+00  0.0000E+00  0.0000E+00  0.0000E+00  0.0000E+00  0.0000E+00  0.0000E+00  0.0000E+00  0.0000E+00  0.0000E+00  0.0000E+00  0.0000E+00  0.0000E+00  0.0000E+00  0.0000E+00  0.0000E+00  0.0000E+00  0.0000E+00  0.0000E+00  0.0000E+00  0.0000E+00  0.0000E+00  0.0000E+00