    2    2    1    1
  0.2779610E+02  0.4283936E-09  0.4283936E-09  0.4283936E-09  0.5000000E-15
  1.000000000000000E-004
  CAR 
 unknown system                          
     18     30     21
 
  0.0000000E+00  0.0000000E+00  0.0000000E+00  0.2915452E-02
    1      -10.267526   1.000000
    2      -10.267526   1.000000
    3      -10.267519   1.000000
    4      -10.267519   1.000000
    5       -9.476718   1.000000
    6       -9.476718   1.000000
    7       -9.390725   1.000000
    8       -9.390725   1.000000
    9       -9.390720   1.000000
   10       -9.390720   1.000000
   11       -7.317213   1.000000
   12       -7.317213   1.000000
   13        3.809896   1.000000
   14        3.809930   1.000000
   15        4.130343   1.002710
   16        4.130343   1.002736
   17        4.130344   1.002973
   18        4.130523   1.005588
   19        4.287279  -0.000362
   20        4.287492  -0.013645
   21        7.846105   0.000000
 
  0.1428571E+00  0.0000000E+00  0.0000000E+00  0.1166181E-01
    1      -10.272093   1.000000
    2      -10.272093   1.000000
    3      -10.269856   1.000000
    4      -10.261900   1.000000
    5       -9.481402   1.000000
    6       -9.481401   1.000000
    7       -9.400375   1.000000
    8       -9.400375   1.000000
    9       -9.389531   1.000000
   10       -9.379689   1.000000
   11       -7.115946   1.000000
   12       -7.115946   1.000000
   13        2.098608   1.000000
   14        2.098608   1.000000
   15        3.657710   1.000000
   16        3.657711   1.000000
   17        3.869974   1.000000
   18        3.879939   1.000000
   19        5.423886  -0.000000
   20        5.423886  -0.000000
   21        8.039362   0.000000
 
  0.2857143E+00  0.0000000E+00  0.0000000E+00  0.1166181E-01
    1      -10.283531   1.000000
    2      -10.283531   1.000000
    3      -10.267418   1.000000
    4      -10.257562   1.000000
    5       -9.490364   1.000000
    6       -9.490363   1.000000
    7       -9.417130   1.000000
    8       -9.417129   1.000000
    9       -9.376388   1.000000
   10       -9.364153   1.000000
   11       -6.583603   1.000000
   12       -6.583603   1.000000
   13        0.110195   1.000000
   14        0.110195   1.000000
   15        3.201324   1.000000
   16        3.201324   1.000000
   17        3.419469   1.000000
   18        3.430155   1.000000
   19        5.483696  -0.000000
   20        5.483696  -0.000000
   21        8.626567   0.000000
 
  0.4285714E+00  0.0000000E+00  0.0000000E+00  0.1166181E-01
    1      -10.293878   1.000000
    2      -10.293878   1.000000
    3      -10.262277   1.000000
    4      -10.257915   1.000000
    5       -9.496024   1.000000
    6       -9.496023   1.000000
    7       -9.426958   1.000000
    8       -9.426958   1.000000
    9       -9.360987   1.000000
   10       -9.355556   1.000000
   11       -6.009325   1.000000
   12       -6.009325   1.000000
   13       -1.246567   1.000000
   14       -1.246567   1.000000
   15        2.909458   1.000000
   16        2.909458   1.000000
   17        3.133288   1.000000
   18        3.137691   1.000000
   19        5.331948  -0.000000
   20        5.331948  -0.000000
   21        8.685466   0.000000
 
 -0.4285714E+00  0.0000000E+00  0.0000000E+00  0.1166181E-01
    1      -10.293878   1.000000
    2      -10.293878   1.000000
    3      -10.262277   1.000000
    4      -10.257915   1.000000
    5       -9.496024   1.000000
    6       -9.496023   1.000000
    7       -9.426958   1.000000
    8       -9.426958   1.000000
    9       -9.360987   1.000000
   10       -9.355556   1.000000
   11       -6.009325   1.000000
   12       -6.009325   1.000000
   13       -1.246567   1.000000
   14       -1.246567   1.000000
   15        2.909458   1.000000
   16        2.909458   1.000000
   17        3.133288   1.000000
   18        3.137692   1.000000
   19        5.331948  -0.000000
   20        5.331948  -0.000000
   21        8.711739   0.000000
 
 -0.2857143E+00  0.0000000E+00  0.0000000E+00  0.1166181E-01
    1      -10.283531   1.000000
    2      -10.283531   1.000000
    3      -10.267418   1.000000
    4      -10.257562   1.000000
    5       -9.490364   1.000000
    6       -9.490363   1.000000
    7       -9.417130   1.000000
    8       -9.417129   1.000000
    9       -9.376388   1.000000
   10       -9.364153   1.000000
   11       -6.583603   1.000000
   12       -6.583603   1.000000
   13        0.110195   1.000000
   14        0.110195   1.000000
   15        3.201324   1.000000
   16        3.201324   1.000000
   17        3.419469   1.000000
   18        3.430155   1.000000
   19        5.483696  -0.000000
   20        5.483696  -0.000000
   21        8.637400   0.000000
 
 -0.1428571E+00  0.0000000E+00  0.0000000E+00  0.1166181E-01
    1      -10.272093   1.000000
    2      -10.272093   1.000000
    3      -10.269856   1.000000
    4      -10.261900   1.000000
    5       -9.481402   1.000000
    6       -9.481401   1.000000
    7       -9.400375   1.000000
    8       -9.400375   1.000000
    9       -9.389531   1.000000
   10       -9.379689   1.000000
   11       -7.115946   1.000000
   12       -7.115946   1.000000
   13        2.098608   1.000000
   14        2.098608   1.000000
   15        3.657710   1.000000
   16        3.657710   1.000000
   17        3.869974   1.000000
   18        3.879939   1.000000
   19        5.423886  -0.000000
   20        5.423886  -0.000000
   21        8.088818   0.000000
 
  0.1428571E+00  0.1428571E+00  0.0000000E+00  0.1749271E-01
    1      -10.278910   1.000000
    2      -10.278909   1.000000
    3      -10.259927   1.000000
    4      -10.259925   1.000000
    5       -9.484873   1.000000
    6       -9.484873   1.000000
    7       -9.394610   1.000000
    8       -9.394607   1.000000
    9       -9.388490   1.000000
   10       -9.388487   1.000000
   11       -7.049883   1.000000
   12       -7.049883   1.000000
   13        2.082374   1.000000
   14        2.082374   1.000000
   15        3.284251   1.000000
   16        3.284251   1.000000
   17        3.409678   1.000000
   18        3.409678   1.000000
   19        6.162429   0.000000
   20        6.743328   0.000000
   21        7.114161   0.000000
 
  0.2857143E+00  0.1428571E+00  0.0000000E+00  0.3498542E-01
    1      -10.299080   1.000000
    2      -10.281981   1.000000
    3      -10.258133   1.000000
    4      -10.249989   1.000000
    5       -9.512350   1.000000
    6       -9.478173   1.000000
    7       -9.406667   1.000000
    8       -9.401143   1.000000
    9       -9.380203   1.000000
   10       -9.373671   1.000000
   11       -6.630102   1.000000
   12       -6.623646   1.000000
   13        0.589970   1.000000
   14        0.590174   1.000000
   15        2.752214   1.000000
   16        2.784159   1.000000
   17        2.918425   1.000000
   18        2.924283   1.000000
   19        6.498843   0.000000
   20        6.527030   0.000000
   21        7.433242   0.000000
 
  0.4285714E+00  0.1428571E+00  0.0000000E+00  0.3498542E-01
    1      -10.319449   1.000000
    2      -10.284319   1.000000
    3      -10.254824   1.000000
    4      -10.243987   1.000000
    5       -9.538569   1.000000
    6       -9.466022   1.000000
    7       -9.421831   1.000000
    8       -9.409641   1.000000
    9       -9.364799   1.000000
   10       -9.361639   1.000000
   11       -6.042966   1.000000
   12       -6.033058   1.000000
   13       -0.872356   1.000000
   14       -0.857032   1.000000
   15        2.219754   1.000000
   16        2.250893   1.000000
   17        2.661207   1.000000
   18        2.664600   1.000000
   19        6.338966   0.000000
   20        6.357699   0.000000
   21        8.247097   0.000000
 
 -0.4285714E+00  0.1428571E+00  0.0000000E+00  0.3498542E-01
    1      -10.325712   1.000000
    2      -10.285778   1.000000
    3      -10.251708   1.000000
    4      -10.243245   1.000000
    5       -9.547036   1.000000
    6       -9.456885   1.000000
    7       -9.432383   1.000000
    8       -9.411952   1.000000
    9       -9.359769   1.000000
   10       -9.357604   1.000000
   11       -5.804906   1.000000
   12       -5.794559   1.000000
   13       -1.343561   1.000000
   14       -1.320324   1.000000
   15        1.907476   1.000000
   16        1.928839   1.000000
   17        2.776139   1.000000
   18        2.783947   1.000000
   19        6.286936   0.000000
   20        6.292129   0.000000
   21        8.508004   0.000000
 
 -0.2857143E+00  0.1428571E+00  0.0000000E+00  0.3498542E-01
    1      -10.313291   1.000000
    2      -10.284360   1.000000
    3      -10.251787   1.000000
    4      -10.248157   1.000000
    5       -9.534648   1.000000
    6       -9.461494   1.000000
    7       -9.426900   1.000000
    8       -9.407913   1.000000
    9       -9.369354   1.000000
   10       -9.362945   1.000000
   11       -6.238798   1.000000
   12       -6.227084   1.000000
   13       -0.448020   1.000000
   14       -0.431533   1.000000
   15        1.989312   1.000000
   16        2.008483   1.000000
   17        3.187551   1.000000
   18        3.199990   1.000000
   19        6.363903   0.000000
   20        6.365958   0.000000
   21        8.777731   0.000000
 
 -0.1428571E+00  0.1428571E+00  0.0000000E+00  0.3498542E-01
    1      -10.289789   1.000000
    2      -10.279549   1.000000
    3      -10.258636   1.000000
    4      -10.256293   1.000000
    5       -9.506093   1.000000
    6       -9.472148   1.000000
    7       -9.412233   1.000000
    8       -9.401666   1.000000
    9       -9.382937   1.000000
   10       -9.373912   1.000000
   11       -6.806803   1.000000
   12       -6.799368   1.000000
   13        1.032887   1.000000
   14        1.034261   1.000000
   15        2.640078   1.000000
   16        2.669641   1.000000
   17        3.668081   1.000000
   18        3.683399   1.000000
   19        6.177498   0.000000
   20        6.291405   0.000000
   21        8.238155   0.000000
 
  0.2857143E+00  0.2857143E+00  0.0000000E+00  0.1749271E-01
    1      -10.303512   1.000000
    2      -10.303511   1.000000
    3      -10.245102   1.000000
    4      -10.245101   1.000000
    5       -9.506463   1.000000
    6       -9.506463   1.000000
    7       -9.387870   1.000000
    8       -9.387869   1.000000
    9       -9.380300   1.000000
   10       -9.380299   1.000000
   11       -6.343750   1.000000
   12       -6.343750   1.000000
   13        0.197133   1.000000
   14        0.197133   1.000000
   15        2.310547   1.000000
   16        2.310547   1.000000
   17        2.365934   1.000000
   18        2.365934   1.000000
   19        6.250868   0.000000
   20        6.251202   0.000000
   21        7.030537   0.000000
 
  0.4285714E+00  0.2857143E+00  0.0000000E+00  0.3498542E-01
    1      -10.331270   1.000000
    2      -10.297923   1.000000
    3      -10.243213   1.000000
    4      -10.233404   1.000000
    5       -9.547732   1.000000
    6       -9.482742   1.000000
    7       -9.394198   1.000000
    8       -9.389507   1.000000
    9       -9.373856   1.000000
   10       -9.363395   1.000000
   11       -5.859408   1.000000
   12       -5.851328   1.000000
   13       -0.743087   1.000000
   14       -0.726462   1.000000
   15        1.630145   1.000000
   16        1.658543   1.000000
   17        2.082068   1.000000
   18        2.084485   1.000000
   19        6.358307   0.000000
   20        6.394543   0.000000
   21        7.398502   0.000000
 
 -0.4285714E+00  0.2857143E+00  0.0000000E+00  0.3498542E-01
    1      -10.346163   1.000000
    2      -10.291808   1.000000
    3      -10.242608   1.000000
    4      -10.224694   1.000000
    5       -9.575214   1.000000
    6       -9.460660   1.000000
    7       -9.404102   1.000000
    8       -9.397988   1.000000
    9       -9.366809   1.000000
   10       -9.357210   1.000000
   11       -5.531602   1.000000
   12       -5.521408   1.000000
   13       -1.260715   1.000000
   14       -1.216529   1.000000
   15        0.934701   1.000000
   16        0.949691   1.000000
   17        2.199654   1.000000
   18        2.205352   1.000000
   19        6.525366   0.000000
   20        6.530983   0.000000
   21        8.825132   0.000000
 
 -0.2857143E+00  0.2857143E+00  0.0000000E+00  0.3498542E-01
    1      -10.339194   1.000000
    2      -10.288390   1.000000
    3      -10.245301   1.000000
    4      -10.227943   1.000000
    5       -9.570714   1.000000
    6       -9.448496   1.000000
    7       -9.424256   1.000000
    8       -9.400560   1.000000
    9       -9.364108   1.000000
   10       -9.360502   1.000000
   11       -5.751262   1.000000
   12       -5.737326   1.000000
   13       -0.968803   1.000000
   14       -0.923322   1.000000
   15        0.920365   1.000000
   16        0.927114   1.000000
   17        2.649656   1.000000
   18        2.659233   1.000000
   19        6.772856   0.000000
   20        6.784787   0.000000
   21        9.453357   0.000000
 
 -0.1428571E+00  0.2857143E+00  0.0000000E+00  0.3498542E-01
    1      -10.313291   1.000000
    2      -10.284360   1.000000
    3      -10.251787   1.000000
    4      -10.248157   1.000000
    5       -9.534648   1.000000
    6       -9.461494   1.000000
    7       -9.426900   1.000000
    8       -9.407913   1.000000
    9       -9.369354   1.000000
   10       -9.362945   1.000000
   11       -6.238798   1.000000
   12       -6.227084   1.000000
   13       -0.448020   1.000000
   14       -0.431533   1.000000
   15        1.989312   1.000000
   16        2.008483   1.000000
   17        3.187551   1.000000
   18        3.199990   1.000000
   19        6.363868   0.000000
   20        6.365993   0.000000
   21        8.914354   0.000000
 
  0.4285714E+00  0.4285714E+00  0.0000000E+00  0.1749271E-01
    1      -10.323738   1.000000
    2      -10.323737   1.000000
    3      -10.234005   1.000000
    4      -10.234005   1.000000
    5       -9.520676   1.000000
    6       -9.520676   1.000000
    7       -9.385928   1.000000
    8       -9.385928   1.000000
    9       -9.361866   1.000000
   10       -9.361866   1.000000
   11       -5.555801   1.000000
   12       -5.555801   1.000000
   13       -1.193182   1.000000
   14       -1.193182   1.000000
   15        1.732041   1.000000
   16        1.732041   1.000000
   17        1.747929   1.000000
   18        1.747929   1.000000
   19        5.835540   0.000000
   20        5.839396   0.000000
   21        6.566912   0.000000
 
 -0.4285714E+00  0.4285714E+00  0.0000000E+00  0.3498542E-01
    1      -10.344947   1.000000
    2      -10.305496   1.000000
    3      -10.236768   1.000000
    4      -10.226243   1.000000
    5       -9.560793   1.000000
    6       -9.485148   1.000000
    7       -9.391168   1.000000
    8       -9.377705   1.000000
    9       -9.375170   1.000000
   10       -9.353963   1.000000
   11       -5.394016   1.000000
   12       -5.388831   1.000000
   13       -1.387686   1.000000
   14       -1.358923   1.000000
   15        1.188656   1.000000
   16        1.209529   1.000000
   17        1.787247   1.000000
   18        1.789989   1.000000
   19        6.121795   0.000000
   20        6.153495   0.000000
   21        7.182006   0.000000
 
 -0.2857143E+00  0.4285714E+00  0.0000000E+00  0.3498542E-01
    1      -10.346163   1.000000
    2      -10.291808   1.000000
    3      -10.242608   1.000000
    4      -10.224694   1.000000
    5       -9.575214   1.000000
    6       -9.460660   1.000000
    7       -9.404102   1.000000
    8       -9.397988   1.000000
    9       -9.366809   1.000000
   10       -9.357210   1.000000
   11       -5.531602   1.000000
   12       -5.521408   1.000000
   13       -1.260715   1.000000
   14       -1.216529   1.000000
   15        0.934701   1.000000
   16        0.949691   1.000000
   17        2.199654   1.000000
   18        2.205352   1.000000
   19        6.525389   0.000000
   20        6.530981   0.000000
   21        9.146087   0.000000
 
 -0.1428571E+00  0.4285714E+00  0.0000000E+00  0.3498542E-01
    1      -10.325712   1.000000
    2      -10.285778   1.000000
    3      -10.251708   1.000000
    4      -10.243245   1.000000
    5       -9.547036   1.000000
    6       -9.456885   1.000000
    7       -9.432383   1.000000
    8       -9.411952   1.000000
    9       -9.359769   1.000000
   10       -9.357604   1.000000
   11       -5.804906   1.000000
   12       -5.794559   1.000000
   13       -1.343561   1.000000
   14       -1.320324   1.000000
   15        1.907476   1.000000
   16        1.928839   1.000000
   17        2.776139   1.000000
   18        2.783946   1.000000
   19        6.286891   0.000000
   20        6.292175   0.000000
   21        8.509787   0.000000
 
 -0.2857143E+00 -0.4285714E+00  0.0000000E+00  0.3498542E-01
    1      -10.331270   1.000000
    2      -10.297923   1.000000
    3      -10.243213   1.000000
    4      -10.233404   1.000000
    5       -9.547732   1.000000
    6       -9.482742   1.000000
    7       -9.394198   1.000000
    8       -9.389507   1.000000
    9       -9.373856   1.000000
   10       -9.363395   1.000000
   11       -5.859408   1.000000
   12       -5.851328   1.000000
   13       -0.743087   1.000000
   14       -0.726462   1.000000
   15        1.630145   1.000000
   16        1.658543   1.000000
   17        2.082068   1.000000
   18        2.084485   1.000000
   19        6.374584   0.000000
   20        6.381533   0.000000
   21        7.383582   0.000000
 
 -0.1428571E+00 -0.4285714E+00  0.0000000E+00  0.3498542E-01
    1      -10.319449   1.000000
    2      -10.284319   1.000000
    3      -10.254824   1.000000
    4      -10.243987   1.000000
    5       -9.538569   1.000000
    6       -9.466022   1.000000
    7       -9.421831   1.000000
    8       -9.409641   1.000000
    9       -9.364799   1.000000
   10       -9.361639   1.000000
   11       -6.042966   1.000000
   12       -6.033058   1.000000
   13       -0.872356   1.000000
   14       -0.857032   1.000000
   15        2.219754   1.000000
   16        2.250893   1.000000
   17        2.661207   1.000000
   18        2.664600   1.000000
   19        6.339006   0.000000
   20        6.357666   0.000000
   21        8.245906   0.000000
 
 -0.1428571E+00 -0.2857143E+00  0.0000000E+00  0.3498542E-01
    1      -10.299080   1.000000
    2      -10.281981   1.000000
    3      -10.258133   1.000000
    4      -10.249989   1.000000
    5       -9.512350   1.000000
    6       -9.478173   1.000000
    7       -9.406667   1.000000
    8       -9.401143   1.000000
    9       -9.380203   1.000000
   10       -9.373671   1.000000
   11       -6.630102   1.000000
   12       -6.623646   1.000000
   13        0.589970   1.000000
   14        0.590174   1.000000
   15        2.752214   1.000000
   16        2.784159   1.000000
   17        2.918425   1.000000
   18        2.924284   1.000000
   19        6.506289   0.000000
   20        6.706685   0.000000
   21        7.432323   0.000000
 
  0.4285714E+00  0.2857143E+00  0.1428571E+00  0.6997085E-01
    1      -10.322394   1.000000
    2      -10.287123   1.000000
    3      -10.249153   1.000000
    4      -10.239249   1.000000
    5       -9.544441   1.000000
    6       -9.467527   1.000000
    7       -9.409815   1.000000
    8       -9.398477   1.000000
    9       -9.370555   1.000000
   10       -9.368846   1.000000
   11       -6.169173   1.000000
   12       -6.157371   1.000000
   13       -0.284969   1.000000
   14       -0.266949   1.000000
   15        1.699265   1.000000
   16        1.717094   1.000000
   17        2.627791   1.000000
   18        2.657859   1.000000
   19        7.226683   0.000000
   20        7.352367   0.000000
   21        7.498728   0.000000
 
 -0.4285714E+00  0.2857143E+00  0.1428571E+00  0.6997085E-01
    1      -10.341408   1.000000
    2      -10.287765   1.000000
    3      -10.244345   1.000000
    4      -10.229615   1.000000
    5       -9.571532   1.000000
    6       -9.451072   1.000000
    7       -9.418552   1.000000
    8       -9.399934   1.000000
    9       -9.363745   1.000000
   10       -9.360613   1.000000
   11       -5.684141   1.000000
   12       -5.672033   1.000000
   13       -1.123081   1.000000
   14       -1.084753   1.000000
   15        1.196974   1.000000
   16        1.211738   1.000000
   17        2.227662   1.000000
   18        2.256920   1.000000
   19        7.261714   0.000000
   20        7.300285   0.000000
   21        8.261825   0.000000
 
 -0.2857143E+00  0.2857143E+00  0.1428571E+00  0.6997085E-01
    1      -10.341408   1.000000
    2      -10.287765   1.000000
    3      -10.244346   1.000000
    4      -10.229615   1.000000
    5       -9.571532   1.000000
    6       -9.451071   1.000000
    7       -9.418555   1.000000
    8       -9.399935   1.000000
    9       -9.363746   1.000000
   10       -9.360610   1.000000
   11       -5.684141   1.000000
   12       -5.672033   1.000000
   13       -1.123081   1.000000
   14       -1.084754   1.000000
   15        1.196973   1.000000
   16        1.211737   1.000000
   17        2.227663   1.000000
   18        2.256921   1.000000
   19        7.263886   0.000000
   20        7.288253   0.000000
   21        8.256364   0.000000
 
 -0.4285714E+00  0.4285714E+00  0.1428571E+00  0.6997085E-01
    1      -10.347730   1.000000
    2      -10.296088   1.000000
    3      -10.237666   1.000000
    4      -10.226670   1.000000
    5       -9.572875   1.000000
    6       -9.468265   1.000000
    7       -9.394162   1.000000
    8       -9.388491   1.000000
    9       -9.372774   1.000000
   10       -9.356822   1.000000
   11       -5.495486   1.000000
   12       -5.487382   1.000000
   13       -1.209358   1.000000
   14       -1.173938   1.000000
   15        1.256096   1.000000
   16        1.268871   1.000000
   17        1.577735   1.000000
   18        1.602161   1.000000
   19        7.002104   0.000000
   20        7.118904   0.000000
   21        7.448221   0.000000
 
 -0.2857143E+00  0.4285714E+00  0.1428571E+00  0.6997085E-01
    1      -10.354170   1.000000
    2      -10.290151   1.000000
    3      -10.237418   1.000000
    4      -10.222301   1.000000
    5       -9.589124   1.000000
    6       -9.448153   1.000000
    7       -9.406937   1.000000
    8       -9.393906   1.000000
    9       -9.366386   1.000000
   10       -9.358548   1.000000
   11       -5.406165   1.000000
   12       -5.397170   1.000000
   13       -1.280745   1.000000
   14       -1.227416   1.000000
   15        0.831028   1.000000
   16        0.840340   1.000000
   17        1.654532   1.000000
   18        1.681029   1.000000
   19        7.433861   0.000000
   20        7.439626   0.000000
   21        8.846755   0.000000
