       N       E                     dE             d eps       ncg     rms          ort
DAV:   1     0.187510286575E+03    0.18751E+03   -0.66079E+03   630   0.161E+03
DAV:   2     0.515004578135E+02   -0.13601E+03   -0.13292E+03   630   0.457E+02
DAV:   3     0.728329749525E+01   -0.44217E+02   -0.42854E+02   630   0.276E+02
DAV:   4    -0.890757414665E+01   -0.16191E+02   -0.15933E+02   630   0.157E+02
DAV:   5    -0.113755686581E+02   -0.24680E+01   -0.24402E+01   630   0.532E+01
SDA:   6    -0.102291229102E+02    0.11464E+01   -0.90719E+00   630   0.227E+01 0.000E+00
DMP:   7    -0.109168620603E+02   -0.68774E+00   -0.53193E+00   630   0.884E+00 0.117E+01
DMP:   8    -0.112872763354E+02   -0.37041E+00   -0.20567E+00   630   0.316E+00 0.518E+00
DMP:   9    -0.114354887262E+02   -0.14821E+00   -0.88806E-01   630   0.139E+00 0.218E+00
DMP:  10    -0.115029301775E+02   -0.67441E-01   -0.44033E-01   630   0.690E-01 0.108E+00
DMP:  11    -0.115366888734E+02   -0.33759E-01   -0.19208E-01   630   0.273E-01 0.542E-01
DMP:  12    -0.115514994726E+02   -0.14811E-01   -0.82030E-02   630   0.115E-01 0.236E-01
DMP:  13    -0.115580082021E+02   -0.65087E-02   -0.38747E-02   630   0.555E-02 0.108E-01
DMP:  14    -0.115611720840E+02   -0.31639E-02   -0.19538E-02   630   0.274E-02 0.561E-02
DMP:  15    -0.115628132299E+02   -0.16411E-02   -0.10087E-02   630   0.138E-02 0.300E-02
DMP:  16    -0.115638425056E+02   -0.10293E-02   -0.76895E-03   630   0.942E-03 0.257E-02
DMP:  17    -0.115645074392E+02   -0.66493E-03   -0.35217E-03   630   0.418E-03 0.121E-02
DMP:  18    -0.115647826502E+02   -0.27521E-03   -0.15173E-03   630   0.179E-03 0.526E-03
DMP:  19    -0.115649334310E+02   -0.15078E-03   -0.10989E-03   630   0.125E-03 0.393E-03
DMP:  20    -0.115650612513E+02   -0.12782E-03   -0.97755E-04   630   0.106E-03 0.361E-03
DMP:  21    -0.115651603300E+02   -0.99079E-04   -0.60218E-04   630   0.635E-04 0.228E-03
DMP:  22    -0.115652021581E+02   -0.41828E-04   -0.11090E-04   630   0.118E-04 0.417E-04
DMP:  23    -0.115652260095E+02   -0.23851E-04   -0.77761E-05   630   0.786E-05 0.303E-04
DMP:  24    -0.115652319790E+02   -0.59695E-05   -0.27078E-05   630   0.269E-05 0.107E-04
   1 F= -.11565232E+02 E0= -.11565237E+02  d E =0.152411E-04  mag=    -0.0000    -0.0000     0.0000
