 vasp.5.4.4.18Apr17-6-g9f103f2a35 (build Sep 01 2023 15:53:54) complex          
  
 executed on             LinuxIFC date 2023.11.23  04:14:45
 running on   54 total cores
 distrk:  each k-point on    9 cores,    6 groups
 distr:  one band on NCORES_PER_BAND=   3 cores,    3 groups


--------------------------------------------------------------------------------------------------------


 INCAR:
 POTCAR:    PAW_PBE In_d 06Sep2000                
 POTCAR:    PAW_PBE As 22Sep2009                  

 ----------------------------------------------------------------------------- 
|                                                                             |
|           W    W    AA    RRRRR   N    N  II  N    N   GGGG   !!!           |
|           W    W   A  A   R    R  NN   N  II  NN   N  G    G  !!!           |
|           W    W  A    A  R    R  N N  N  II  N N  N  G       !!!           |
|           W WW W  AAAAAA  RRRRR   N  N N  II  N  N N  G  GGG   !            |
|           WW  WW  A    A  R   R   N   NN  II  N   NN  G    G                |
|           W    W  A    A  R    R  N    N  II  N    N   GGGG   !!!           |
|                                                                             |
|      For optimal performance we recommend to set                            |
|        NCORE= 4 - approx SQRT( number of cores)                             |
|      NCORE specifies how many cores store one orbital (NPAR=cpu/NCORE).     |
|      This setting can  greatly improve the performance of VASP for DFT.     |
|      The default,   NCORE=1            might be grossly inefficient         |
|      on modern multi-core architectures or massively parallel machines.     |
|      Do your own testing !!!!                                               |
|      Unfortunately you need to use the default for GW and RPA calculations. |
|      (for HF NCORE is supported but not extensively tested yet)             |
|                                                                             |
 ----------------------------------------------------------------------------- 


 ----------------------------------------------------------------------------- 
|                                                                             |
|           W    W    AA    RRRRR   N    N  II  N    N   GGGG   !!!           |
|           W    W   A  A   R    R  NN   N  II  NN   N  G    G  !!!           |
|           W    W  A    A  R    R  N N  N  II  N N  N  G       !!!           |
|           W WW W  AAAAAA  RRRRR   N  N N  II  N  N N  G  GGG   !            |
|           WW  WW  A    A  R   R   N   NN  II  N   NN  G    G                |
|           W    W  A    A  R    R  N    N  II  N    N   GGGG   !!!           |
|                                                                             |
|      You have enabled k-point parallelism (KPAR>1).                         |
|      This developmental code was originally  written by Paul Kent at ORNL,  |
|      and carefully double checked in Vienna.                                |
|      GW as well as linear response parallelism added by Martijn Marsman     |
|      and Georg Kresse.                                                      |
|      Carefully verify results versus KPAR=1.                                |
|      Report problems to Paul Kent and Vienna.                               |
|                                                                             |
 ----------------------------------------------------------------------------- 

 POTCAR:    PAW_PBE In_d 06Sep2000                
   VRHFIN =In: s2p1                                                             
   LEXCH  = PE                                                                  
   EATOM  =  1576.8302 eV,  115.8937 Ry                                         
                                                                                
   TITEL  = PAW_PBE In_d 06Sep2000                                              
   LULTRA =        F    use ultrasoft PP ?                                      
   IUNSCR =        1    unscreen: 0-lin 1-nonlin 2-no                           
   RPACOR =    2.200    partial core radius                                     
   POMASS =  114.820; ZVAL   =   13.000    mass and valenz                      
   RCORE  =    2.500    outmost cutoff radius                                   
   RWIGS  =    3.170; RWIGS  =    1.677    wigner-seitz radius (au A)           
   ENMAX  =  239.211; ENMIN  =  179.409 eV                                      
   ICORE  =        3    local potential                                         
   LCOR   =        T    correct aug charges                                     
   LPAW   =        T    paw PP                                                  
   EAUG   =  449.704                                                            
   DEXC   =    0.000                                                            
   RMAX   =    2.552    core radius for proj-oper                               
   RAUG   =    1.300    factor for augmentation sphere                          
   RDEP   =    2.630    radius for radial grids                                 
   RDEPT  =    2.033    core radius for aug-charge                              
                                                                                
   Atomic configuration                                                         
   12 entries                                                                   
     n  l   j            E        occ.                                          
     1  0  0.50    -27747.9169   2.0000                                         
     2  0  0.50     -4154.4438   2.0000                                         
     2  1  1.50     -3728.4305   6.0000                                         
     3  0  0.50      -788.3680   2.0000                                         
     3  1  1.50      -648.9215   6.0000                                         
     3  2  2.50      -432.5893  10.0000                                         
     4  0  0.50      -119.6363   2.0000                                         
     4  1  1.50       -78.1086   6.0000                                         
     4  2  2.50       -18.6227  10.0000                                         
     5  0  0.50        -8.2107   2.0000                                         
     5  1  0.50        -2.5185   1.0000                                         
     4  3  2.50        -2.7212   0.0000                                         
   Description                                                                  
     l       E           TYP  RCUT    TYP  RCUT                                 
     2    -18.6226981     23  2.500                                             
     2     -1.3605826     23  2.500                                             
     0     -8.2107305     23  2.500                                             
     0     -6.1485975     23  2.500                                             
     1     -2.5184867     23  2.500                                             
     1      3.2427302     23  2.500                                             
     3     -1.3605826      7  2.500                                             
  local pseudopotential read in
  partial core-charges read in
  partial kinetic energy density read in
  atomic valenz-charges read in
  non local Contribution for L=           2  read in
    real space projection operators read in
  non local Contribution for L=           2  read in
    real space projection operators read in
  non local Contribution for L=           0  read in
    real space projection operators read in
  non local Contribution for L=           0  read in
    real space projection operators read in
  non local Contribution for L=           1  read in
    real space projection operators read in
  non local Contribution for L=           1  read in
    real space projection operators read in
    PAW grid and wavefunctions read in
 
   number of l-projection  operators is LMAX  =           6
   number of lm-projection operators is LMMAX =          18
 
 POTCAR:    PAW_PBE As 22Sep2009                  
   VRHFIN =As: s2p3                                                             
   LEXCH  = PE                                                                  
   EATOM  =   170.1867 eV,   12.5084 Ry                                         
                                                                                
   TITEL  = PAW_PBE As 22Sep2009                                                
   LULTRA =        F    use ultrasoft PP ?                                      
   IUNSCR =        1    unscreen: 0-lin 1-nonlin 2-no                           
   RPACOR =    1.900    partial core radius                                     
   POMASS =   74.922; ZVAL   =    5.000    mass and valenz                      
   RCORE  =    2.100    outmost cutoff radius                                   
   RWIGS  =    2.300; RWIGS  =    1.217    wigner-seitz radius (au A)           
   ENMAX  =  208.702; ENMIN  =  156.526 eV                                      
   ICORE  =        3    local potential                                         
   LCOR   =        T    correct aug charges                                     
   LPAW   =        T    paw PP                                                  
   EAUG   =  462.758                                                            
   DEXC   =    0.000                                                            
   RMAX   =    2.144    core radius for proj-oper                               
   RAUG   =    1.300    factor for augmentation sphere                          
   RDEP   =    2.140    radius for radial grids                                 
   RDEPT  =    1.956    core radius for aug-charge                              
                                                                                
   Atomic configuration                                                         
   10 entries                                                                   
     n  l   j            E        occ.                                          
     1  0  0.50    -11718.0418   2.0000                                         
     2  0  0.50     -1486.5454   2.0000                                         
     2  1  1.50     -1303.3889   6.0000                                         
     3  0  0.50      -190.2849   2.0000                                         
     3  1  1.50      -133.6555   6.0000                                         
     3  2  2.50       -40.6443  10.0000                                         
     4  0  0.50       -14.4936   2.0000                                         
     4  1  0.50        -5.1947   3.0000                                         
     4  2  1.50        -5.4423   0.0000                                         
     4  3  2.50        -5.4423   0.0000                                         
   Description                                                                  
     l       E           TYP  RCUT    TYP  RCUT                                 
     0    -14.4935570     23  2.100                                             
     0    -11.9212055     23  2.100                                             
     1     -5.1947127     23  2.100                                             
     1     27.2116520     23  2.100                                             
     2     -5.4423304     23  2.100                                             
     3     -1.3605826      7  2.100                                             
  local pseudopotential read in
  partial core-charges read in
  partial kinetic energy density read in
  atomic valenz-charges read in
  non local Contribution for L=           0  read in
    real space projection operators read in
  non local Contribution for L=           0  read in
    real space projection operators read in
  non local Contribution for L=           1  read in
    real space projection operators read in
  non local Contribution for L=           1  read in
    real space projection operators read in
  non local Contribution for L=           2  read in
    real space projection operators read in
    PAW grid and wavefunctions read in
 
   number of l-projection  operators is LMAX  =           5
   number of lm-projection operators is LMMAX =          13
 
  PAW_PBE In_d 06Sep2000                :
 energy of atom  1       EATOM=-1576.8302
 kinetic energy error for atom=    0.0052 (will be added to EATOM!!)
  PAW_PBE As 22Sep2009                  :
 energy of atom  2       EATOM= -170.1867
 kinetic energy error for atom=    0.0013 (will be added to EATOM!!)
 
 
 POSCAR: In As                                   
  positions in direct lattice
  No initial velocities read in
 exchange correlation table for  LEXCH =        8
   RHO(1)=    0.500       N(1)  =     2000
   RHO(2)=  100.500       N(2)  =     4000
 


--------------------------------------------------------------------------------------------------------


 ion  position               nearest neighbor table
   1  0.000  0.000  0.000-   2 2.62   2 2.62   2 2.62   2 2.62
   2  0.750  0.750  0.750-   1 2.62   1 2.62   1 2.62   1 2.62
 
  LATTYP: Found a face centered cubic cell.
 ALAT       =     6.0584000000
  
  Lattice vectors:
  
 A1 = (   0.0000000000,   3.0292000000,   3.0292000000)
 A2 = (   3.0292000000,   0.0000000000,   3.0292000000)
 A3 = (   3.0292000000,   3.0292000000,   0.0000000000)


Analysis of symmetry for initial positions (statically):
=====================================================================
 Subroutine PRICEL returns:
 Original cell was already a primitive cell.
 

 Routine SETGRP: Setting up the symmetry group for a 
 face centered cubic supercell.


 Subroutine GETGRP returns: Found 24 space group operations
 (whereof 24 operations were pure point group operations)
 out of a pool of 48 trial point group operations.


The static configuration has the point symmetry T_d .


Analysis of symmetry for dynamics (positions and initial velocities):
=====================================================================
 Subroutine PRICEL returns:
 Original cell was already a primitive cell.
 

 Routine SETGRP: Setting up the symmetry group for a 
 face centered cubic supercell.


 Subroutine GETGRP returns: Found 24 space group operations
 (whereof 24 operations were pure point group operations)
 out of a pool of 48 trial point group operations.


The dynamic configuration has the point symmetry T_d .


Analysis of structural, dynamic, and magnetic symmetry:
=====================================================================
 Subroutine PRICEL returns:
 Original cell was already a primitive cell.
 

 Routine SETGRP: Setting up the symmetry group for a 
 face centered cubic supercell.


 Subroutine GETGRP returns: Found 24 space group operations
 (whereof 24 operations were pure point group operations)
 out of a pool of 48 trial point group operations.


The (compounded) configuration has the point symmetry T_d .


 Subroutine INISYM returns: Found 24 space group operations
 (whereof 24 operations are pure point group operations),
 and found     1 'primitive' translations

 
 
 KPOINTS: KPOINTS created by Atomic Simulation Env

Automatic generation of k-mesh.
Space group operators:
 irot       det(A)        alpha          n_x          n_y          n_z        tau_x        tau_y        tau_z
    1     1.000000     0.000000     1.000000     0.000000     0.000000     0.000000     0.000000     0.000000
    2     1.000000   120.000000    -0.577350    -0.577350    -0.577350     0.000000     0.000000     0.000000
    3     1.000000   120.000000     0.577350     0.577350     0.577350     0.000000     0.000000     0.000000
    4    -1.000000    90.000000     0.000000     0.000000    -1.000000     0.000000     0.000000     0.000000
    5    -1.000000   180.000000     0.000000     0.707107     0.707107     0.000000     0.000000     0.000000
    6    -1.000000    90.000000     0.000000     1.000000     0.000000     0.000000     0.000000     0.000000
    7     1.000000   180.000000     0.000000     0.000000     1.000000     0.000000     0.000000     0.000000
    8     1.000000   120.000000    -0.577350     0.577350     0.577350     0.000000     0.000000     0.000000
    9     1.000000   120.000000    -0.577350     0.577350    -0.577350     0.000000     0.000000     0.000000
   10    -1.000000    90.000000     0.000000     0.000000     1.000000     0.000000     0.000000     0.000000
   11    -1.000000    90.000000    -1.000000     0.000000     0.000000     0.000000     0.000000     0.000000
   12    -1.000000   180.000000     0.707107     0.000000     0.707107     0.000000     0.000000     0.000000
   13     1.000000   120.000000     0.577350    -0.577350     0.577350     0.000000     0.000000     0.000000
   14     1.000000   120.000000    -0.577350    -0.577350     0.577350     0.000000     0.000000     0.000000
   15     1.000000   180.000000     1.000000     0.000000     0.000000     0.000000     0.000000     0.000000
   16    -1.000000    90.000000     0.000000    -1.000000     0.000000     0.000000     0.000000     0.000000
   17    -1.000000   180.000000     0.707107     0.707107     0.000000     0.000000     0.000000     0.000000
   18    -1.000000    90.000000     1.000000     0.000000     0.000000     0.000000     0.000000     0.000000
   19     1.000000   120.000000     0.577350    -0.577350    -0.577350     0.000000     0.000000     0.000000
   20     1.000000   180.000000     0.000000     1.000000     0.000000     0.000000     0.000000     0.000000
   21     1.000000   120.000000     0.577350     0.577350    -0.577350     0.000000     0.000000     0.000000
   22    -1.000000   180.000000     0.000000    -0.707107     0.707107     0.000000     0.000000     0.000000
   23    -1.000000   180.000000     0.707107    -0.707107     0.000000     0.000000     0.000000     0.000000
   24    -1.000000   180.000000     0.707107     0.000000    -0.707107     0.000000     0.000000     0.000000
 
 Subroutine IBZKPT returns following result:
 ===========================================
 
 Found     30 irreducible k-points:
 
 Following reciprocal coordinates:
            Coordinates               Weight
  0.000000  0.000000  0.000000      1.000000
  0.142857  0.000000  0.000000      4.000000
  0.285714  0.000000  0.000000      4.000000
  0.428571  0.000000  0.000000      4.000000
 -0.428571  0.000000  0.000000      4.000000
 -0.285714  0.000000  0.000000      4.000000
 -0.142857  0.000000  0.000000      4.000000
  0.142857  0.142857  0.000000      6.000000
  0.285714  0.142857  0.000000     12.000000
  0.428571  0.142857  0.000000     12.000000
 -0.428571  0.142857  0.000000     12.000000
 -0.285714  0.142857  0.000000     12.000000
 -0.142857  0.142857  0.000000     12.000000
  0.285714  0.285714  0.000000      6.000000
  0.428571  0.285714  0.000000     12.000000
 -0.428571  0.285714  0.000000     12.000000
 -0.285714  0.285714  0.000000     12.000000
 -0.142857  0.285714  0.000000     12.000000
  0.428571  0.428571  0.000000      6.000000
 -0.428571  0.428571  0.000000     12.000000
 -0.285714  0.428571  0.000000     12.000000
 -0.142857  0.428571  0.000000     12.000000
 -0.285714 -0.428571  0.000000     12.000000
 -0.142857 -0.428571  0.000000     12.000000
 -0.142857 -0.285714  0.000000     12.000000
  0.428571  0.285714  0.142857     24.000000
 -0.428571  0.285714  0.142857     24.000000
 -0.285714  0.285714  0.142857     24.000000
 -0.428571  0.428571  0.142857     24.000000
 -0.285714  0.428571  0.142857     24.000000
 
 Following cartesian coordinates:
            Coordinates               Weight
  0.000000  0.000000  0.000000      1.000000
 -0.023580  0.023580  0.023580      4.000000
 -0.047160  0.047160  0.047160      4.000000
 -0.070740  0.070740  0.070740      4.000000
  0.070740 -0.070740 -0.070740      4.000000
  0.047160 -0.047160 -0.047160      4.000000
  0.023580 -0.023580 -0.023580      4.000000
  0.000000  0.000000  0.047160      6.000000
 -0.023580  0.023580  0.070740     12.000000
 -0.047160  0.047160  0.094320     12.000000
  0.094320 -0.094320 -0.047160     12.000000
  0.070740 -0.070740 -0.023580     12.000000
  0.047160 -0.047160  0.000000     12.000000
  0.000000  0.000000  0.094320      6.000000
 -0.023580  0.023580  0.117900     12.000000
  0.117900 -0.117900 -0.023580     12.000000
  0.094320 -0.094320  0.000000     12.000000
  0.070740 -0.070740  0.023580     12.000000
  0.000000  0.000000  0.141480      6.000000
  0.141480 -0.141480  0.000000     12.000000
  0.117900 -0.117900  0.023580     12.000000
  0.094320 -0.094320  0.047160     12.000000
 -0.023580  0.023580 -0.117900     12.000000
 -0.047160  0.047160 -0.094320     12.000000
 -0.023580  0.023580 -0.070740     12.000000
 -0.000000  0.047160  0.094320     24.000000
  0.141480 -0.094320 -0.047160     24.000000
  0.117900 -0.070740 -0.023580     24.000000
  0.165060 -0.117900 -0.023580     24.000000
  0.141480 -0.094320 -0.000000     24.000000
 


--------------------------------------------------------------------------------------------------------




 Dimension of arrays:
   k-points           NKPTS =     30   k-points in BZ     NKDIM =     30   number of bands    NBANDS=     21
   number of dos      NEDOS =    301   number of ions     NIONS =      2
   non local maximal  LDIM  =      6   non local SUM 2l+1 LMDIM =     18
   total plane-waves  NPLWV =  13824
   max r-space proj   IRMAX =      1   max aug-charges    IRDMAX=  10939
   dimension x,y,z NGX =    24 NGY =   24 NGZ =   24
   dimension x,y,z NGXF=    48 NGYF=   48 NGZF=   48
   support grid    NGXF=    48 NGYF=   48 NGZF=   48
   ions per type =               1   1
   NGX,Y,Z   is equivalent  to a cutoff of   9.31,  9.31,  9.31 a.u.
   NGXF,Y,Z  is equivalent  to a cutoff of  18.63, 18.63, 18.63 a.u.

 SYSTEM =  unknown system                          
 POSCAR =  In As                                   

 Startparameter for this run:
   NWRITE =      2    write-flag & timer
   PREC   = n         normal or accurate (medium, high low for compatibility)
   ISTART =      0    job   : 0-new  1-cont  2-samecut
   ICHARG =      2    charge: 1-file 2-atom 10-const
   ISPIN  =      1    spin polarized calculation?
   LNONCOLLINEAR =      T non collinear calculations
   LSORBIT =      T    spin-orbit coupling
   INIWAV =      1    electr: 0-lowe 1-rand  2-diag
   LASPH  =      F    aspherical Exc in radial PAW
   METAGGA=      F    non-selfconsistent MetaGGA calc.

 Electronic Relaxation 1
   ENCUT  =  400.0 eV  29.40 Ry    5.42 a.u.   6.99  6.99  6.99*2*pi/ulx,y,z
   ENINI  =  400.0     initial cutoff
   ENAUG  =  462.8 eV  augmentation charge cutoff
   NELM   =     60;   NELMIN=  2; NELMDL= -5     # of ELM steps 
   EDIFF  = 0.1E-04   stopping-criterion for ELM
   LREAL  =      F    real-space projection
   NLSPLINE    = F    spline interpolate recip. space projectors
   LCOMPAT=      F    compatible to vasp.4.4
   GGA_COMPAT  = T    GGA compatible to vasp.4.4-vasp.4.6
   LMAXPAW     = -100 max onsite density
   LMAXMIX     =    4 max onsite mixed and CHGCAR
   VOSKOWN=      0    Vosko Wilk Nusair interpolation
   ROPT   =    0.00000   0.00000
 Ionic relaxation
   EDIFFG = 0.1E-03   stopping-criterion for IOM
   NSW    =      0    number of steps for IOM
   NBLOCK =      1;   KBLOCK =      1    inner block; outer block 
   IBRION =     -1    ionic relax: 0-MD 1-quasi-New 2-CG
   NFREE  =      0    steps in history (QN), initial steepest desc. (CG)
   ISIF   =      2    stress and relaxation
   IWAVPR =     10    prediction:  0-non 1-charg 2-wave 3-comb
   ISYM   =      2    0-nonsym 1-usesym 2-fastsym
   LCORR  =      T    Harris-Foulkes like correction to forces

   POTIM  = 0.5000    time-step for ionic-motion
   TEIN   =    0.0    initial temperature
   TEBEG  =    0.0;   TEEND  =   0.0 temperature during run
   SMASS  =  -3.00    Nose mass-parameter (am)
   estimated Nose-frequenzy (Omega)   =  0.10E-29 period in steps =****** mass=  -0.419E-27a.u.
   SCALEE = 1.0000    scale energy and forces
   NPACO  =    256;   APACO  = 16.0  distance and # of slots for P.C.
   PSTRESS=    0.0 pullay stress

  Mass of Ions in am
   POMASS = 114.82 74.92
  Ionic Valenz
   ZVAL   =  13.00  5.00
  Atomic Wigner-Seitz radii
   RWIGS  =  -1.00 -1.00
  virtual crystal weights 
   VCA    =   1.00  1.00
   NELECT =      18.0000    total number of electrons
   NUPDOWN=      -1.0000    fix difference up-down

 DOS related values:
   EMIN   =  10.00;   EMAX   =-10.00  energy-range for DOS
   EFERMI =   0.00
   ISMEAR =     1;   SIGMA  =   0.05  broadening in eV -4-tet -1-fermi 0-gaus

 Electronic relaxation 2 (details)
   IALGO  =     53    algorithm
   LDIAG  =      T    sub-space diagonalisation (order eigenvalues)
   LSUBROT=      F    optimize rotation matrix (better conditioning)
   TURBO    =      0    0=normal 1=particle mesh
   IRESTART =      0    0=no restart 2=restart with 2 vectors
   NREBOOT  =      0    no. of reboots
   NMIN     =      0    reboot dimension
   EREF     =   0.00    reference energy to select bands
   IMIX   =      4    mixing-type and parameters
     AMIX     =   0.40;   BMIX     =  3.00
     AMIX_MAG =   1.60;   BMIX_MAG =  3.00
     AMIN     =   0.01
     WC   =   100.;   INIMIX=   1;  MIXPRE=   1;  MAXMIX= -45

 Intra band minimization:
   WEIMIN = 0.0000     energy-eigenvalue tresh-hold
   EBREAK =  0.12E-06  absolut break condition
   DEPER  =   0.30     relativ break condition  

   TIME   =   0.40     timestep for ELM

  volume/ion in A,a.u.               =      27.80       187.58
  Fermi-wavevector in a.u.,A,eV,Ry     =   1.124159  2.124352 17.194136  1.263733
  Thomas-Fermi vector in A             =   2.260829
 
 Write flags
   LWAVE        =      T    write WAVECAR
   LDOWNSAMPLE  =      F    k-point downsampling of WAVECAR
   LCHARG       =      T    write CHGCAR
   LVTOT        =      F    write LOCPOT, total local potential
   LVHAR        =      F    write LOCPOT, Hartree potential only
   LELF         =      F    write electronic localiz. function (ELF)
   LORBIT       =     11    0 simple, 1 ext, 2 COOP (PROOUT), +10 PAW based schemes


 Dipole corrections
   LMONO  =      F    monopole corrections only (constant potential shift)
   LDIPOL =      F    correct potential (dipole corrections)
   IDIPOL =      0    1-x, 2-y, 3-z, 4-all directions 
   EPSILON=  1.0000000 bulk dielectric constant

 LDA+U is selected, type is set to LDAUTYPE =  2
   angular momentum for each species LDAUL =     1    1
   U (eV)           for each species LDAUU =  -4.3 -3.5
   J (eV)           for each species LDAUJ =   0.0  0.0
 Exchange correlation treatment:
   GGA     =    PE    GGA type
   LEXCH   =     8    internal setting for exchange type
   VOSKOWN=      0    Vosko Wilk Nusair interpolation
   LHFCALC =     F    Hartree Fock is set to
   LHFONE  =     F    Hartree Fock one center treatment
   AEXX    =    0.0000 exact exchange contribution

 Linear response parameters
   LEPSILON=     F    determine dielectric tensor
   LRPA    =     F    only Hartree local field effects (RPA)
   LNABLA  =     F    use nabla operator in PAW spheres
   LVEL    =     F    velocity operator in full k-point grid
   LINTERFAST=   F  fast interpolation
   KINTER  =     0    interpolate to denser k-point grid
   CSHIFT  =0.1000    complex shift for real part using Kramers Kronig
   OMEGAMAX=  -1.0    maximum frequency
   DEG_THRESHOLD= 0.2000000E-02 threshold for treating states as degnerate
   RTIME   =   -0.100 relaxation time in fs
  (WPLASMAI=    0.000 imaginary part of plasma frequency in eV, 0.658/RTIME)
   DFIELD  = 0.0000000 0.0000000 0.0000000 field for delta impulse in time
 
 Orbital magnetization related:
   ORBITALMAG=     F  switch on orbital magnetization
   LCHIMAG   =     F  perturbation theory with respect to B field
   DQ        =  0.001000  dq finite difference perturbation B field
   LLRAUG    =     F  two centre corrections for induced B field



--------------------------------------------------------------------------------------------------------


 Static calculation
 charge density and potential will be updated during run
 non collinear spin polarized calculation
 Conjugate gradient for all bands (Freysoldt, et al. PRB 79, 241103 (2009))
 perform sub-space diagonalisation
    before iterative eigenvector-optimisation
 modified Broyden-mixing scheme, WC =      100.0
 initial mixing is a Kerker type mixing with AMIX =  0.4000 and BMIX =      3.0000
 Hartree-type preconditioning will be used
 using additional bands           12
 reciprocal scheme for non local part
 use partial core corrections
 no Harris-corrections to forces 
 use gradient corrections 
 use of overlap-Matrix (Vanderbilt PP)
 Methfessel and Paxton  Order N= 1 SIGMA  =   0.05


--------------------------------------------------------------------------------------------------------


  energy-cutoff  :      400.00
  volume of cell :       55.59
      direct lattice vectors                 reciprocal lattice vectors
     0.000000000  3.029200000  3.029200000    -0.165060082  0.165060082  0.165060082
     3.029200000  0.000000000  3.029200000     0.165060082 -0.165060082  0.165060082
     3.029200000  3.029200000  0.000000000     0.165060082  0.165060082 -0.165060082

  length of vectors
     4.283935723  4.283935723  4.283935723     0.285892448  0.285892448  0.285892448


 
 k-points in units of 2pi/SCALE and weight: KPOINTS created by Atomic Simulation Env
   0.00000000  0.00000000  0.00000000       0.003
  -0.02358001  0.02358001  0.02358001       0.012
  -0.04716002  0.04716002  0.04716002       0.012
  -0.07074004  0.07074004  0.07074004       0.012
   0.07074004 -0.07074004 -0.07074004       0.012
   0.04716002 -0.04716002 -0.04716002       0.012
   0.02358001 -0.02358001 -0.02358001       0.012
   0.00000000  0.00000000  0.04716002       0.017
  -0.02358001  0.02358001  0.07074004       0.035
  -0.04716002  0.04716002  0.09432005       0.035
   0.09432005 -0.09432005 -0.04716002       0.035
   0.07074004 -0.07074004 -0.02358001       0.035
   0.04716002 -0.04716002  0.00000000       0.035
   0.00000000  0.00000000  0.09432005       0.017
  -0.02358001  0.02358001  0.11790006       0.035
   0.11790006 -0.11790006 -0.02358001       0.035
   0.09432005 -0.09432005  0.00000000       0.035
   0.07074004 -0.07074004  0.02358001       0.035
   0.00000000  0.00000000  0.14148007       0.017
   0.14148007 -0.14148007  0.00000000       0.035
   0.11790006 -0.11790006  0.02358001       0.035
   0.09432005 -0.09432005  0.04716002       0.035
  -0.02358001  0.02358001 -0.11790006       0.035
  -0.04716002  0.04716002 -0.09432005       0.035
  -0.02358001  0.02358001 -0.07074004       0.035
  -0.00000000  0.04716002  0.09432005       0.070
   0.14148007 -0.09432005 -0.04716002       0.070
   0.11790006 -0.07074004 -0.02358001       0.070
   0.16506008 -0.11790006 -0.02358001       0.070
   0.14148007 -0.09432005 -0.00000000       0.070
 
 k-points in reciprocal lattice and weights: KPOINTS created by Atomic Simulation Env
   0.00000000  0.00000000  0.00000000       0.003
   0.14285714  0.00000000  0.00000000       0.012
   0.28571429  0.00000000  0.00000000       0.012
   0.42857143  0.00000000  0.00000000       0.012
  -0.42857143  0.00000000  0.00000000       0.012
  -0.28571429  0.00000000  0.00000000       0.012
  -0.14285714  0.00000000  0.00000000       0.012
   0.14285714  0.14285714  0.00000000       0.017
   0.28571429  0.14285714  0.00000000       0.035
   0.42857143  0.14285714  0.00000000       0.035
  -0.42857143  0.14285714  0.00000000       0.035
  -0.28571429  0.14285714  0.00000000       0.035
  -0.14285714  0.14285714  0.00000000       0.035
   0.28571429  0.28571429  0.00000000       0.017
   0.42857143  0.28571429  0.00000000       0.035
  -0.42857143  0.28571429  0.00000000       0.035
  -0.28571429  0.28571429  0.00000000       0.035
  -0.14285714  0.28571429  0.00000000       0.035
   0.42857143  0.42857143  0.00000000       0.017
  -0.42857143  0.42857143  0.00000000       0.035
  -0.28571429  0.42857143  0.00000000       0.035
  -0.14285714  0.42857143  0.00000000       0.035
  -0.28571429 -0.42857143  0.00000000       0.035
  -0.14285714 -0.42857143  0.00000000       0.035
  -0.14285714 -0.28571429  0.00000000       0.035
   0.42857143  0.28571429  0.14285714       0.070
  -0.42857143  0.28571429  0.14285714       0.070
  -0.28571429  0.28571429  0.14285714       0.070
  -0.42857143  0.42857143  0.14285714       0.070
  -0.28571429  0.42857143  0.14285714       0.070
 
 position of ions in fractional coordinates (direct lattice) 
   0.00000000  0.00000000  0.00000000
   0.75000000  0.75000000  0.75000000
 
 position of ions in cartesian coordinates  (Angst):
   0.00000000  0.00000000  0.00000000
   4.54380000  4.54380000  4.54380000
 
 Euler angles ALPHA=     0.0000000  BETA=     0.0000000

 transformation matrix from SAXIS to cartesian coordinates
 ---------------------------------------------------------
     1.0000000 m_x     0.0000000 m_y     0.0000000 m_z
     0.0000000 m_x     1.0000000 m_y     0.0000000 m_z
     0.0000000 m_x     0.0000000 m_y     1.0000000 m_z

 transformation matrix from cartesian coordinates to SAXIS
 ---------------------------------------------------------
     1.0000000 m_x     0.0000000 m_y     0.0000000 m_z
     0.0000000 m_x     1.0000000 m_y     0.0000000 m_z
     0.0000000 m_x     0.0000000 m_y     1.0000000 m_z




--------------------------------------------------------------------------------------------------------


 k-point  1 :   0.0000 0.0000 0.0000  plane waves:    1930
 k-point  2 :   0.1429 0.0000 0.0000  plane waves:    1978
 k-point  3 :   0.2857 0.0000 0.0000  plane waves:    2020
 k-point  4 :   0.4286 0.0000 0.0000  plane waves:    2034
 k-point  5 :  -0.4286 0.0000 0.0000  plane waves:    2034
 k-point  6 :  -0.2857 0.0000 0.0000  plane waves:    2020
 k-point  7 :  -0.1429 0.0000 0.0000  plane waves:    1978
 k-point  8 :   0.1429 0.1429 0.0000  plane waves:    1988
 k-point  9 :   0.2857 0.1429 0.0000  plane waves:    2000
 k-point 10 :   0.4286 0.1429 0.0000  plane waves:    2020
 k-point 11 :  -0.4286 0.1429 0.0000  plane waves:    2012
 k-point 12 :  -0.2857 0.1429 0.0000  plane waves:    2036
 k-point 13 :  -0.1429 0.1429 0.0000  plane waves:    1990
 k-point 14 :   0.2857 0.2857 0.0000  plane waves:    2036
 k-point 15 :   0.4286 0.2857 0.0000  plane waves:    2024
 k-point 16 :  -0.4286 0.2857 0.0000  plane waves:    2022
 k-point 17 :  -0.2857 0.2857 0.0000  plane waves:    2022
 k-point 18 :  -0.1429 0.2857 0.0000  plane waves:    2036
 k-point 19 :   0.4286 0.4286 0.0000  plane waves:    2012
 k-point 20 :  -0.4286 0.4286 0.0000  plane waves:    2026
 k-point 21 :  -0.2857 0.4286 0.0000  plane waves:    2022
 k-point 22 :  -0.1429 0.4286 0.0000  plane waves:    2012
 k-point 23 :  -0.2857-0.4286 0.0000  plane waves:    2024
 k-point 24 :  -0.1429-0.4286 0.0000  plane waves:    2020
 k-point 25 :  -0.1429-0.2857 0.0000  plane waves:    2000
 k-point 26 :   0.4286 0.2857 0.1429  plane waves:    2022
 k-point 27 :  -0.4286 0.2857 0.1429  plane waves:    2026
 k-point 28 :  -0.2857 0.2857 0.1429  plane waves:    2026
 k-point 29 :  -0.4286 0.4286 0.1429  plane waves:    2038
 k-point 30 :  -0.2857 0.4286 0.1429  plane waves:    2028

 maximum and minimum number of plane-waves per node :       704      622

 maximum number of plane-waves:      2038
 maximum index in each direction: 
   IXMAX=    7   IYMAX=    7   IZMAX=    6
   IXMIN=   -7   IYMIN=   -7   IZMIN=   -7


 parallel 3D FFT for wavefunctions:
    minimum data exchange during FFTs selected (reduces bandwidth)
 parallel 3D FFT for charge:
    minimum data exchange during FFTs selected (reduces bandwidth)


 total amount of memory used by VASP MPI-rank0    45585. kBytes
=======================================================================

   base      :      30000. kBytes
   nonl-proj :       3069. kBytes
   fftplans  :       1050. kBytes
   grid      :       3907. kBytes
   one-center:         62. kBytes
   wavefun   :       7497. kBytes
 
     INWAV:  cpu time    0.0000: real time    0.0000
 Broyden mixing: mesh for mixing (old mesh)
   NGX = 13   NGY = 13   NGZ = 13
  (NGX  = 48   NGY  = 48   NGZ  = 48)
  gives a total of   2197 points

 initial charge density was supplied:
 charge density of overlapping atoms calculated
 number of electron      18.0000000 magnetization       0.0000000      0.0000000      0.0000000
 keeping initial charge density in first step


--------------------------------------------------------------------------------------------------------


 Maximum index for augmentation-charges         1552 (set IRDMAX)


--------------------------------------------------------------------------------------------------------


 First call to EWALD:  gamma=   0.464
 Maximum number of real-space cells 3x 3x 3
 Maximum number of reciprocal cells 3x 3x 3

    FEWALD:  cpu time    0.0017: real time    0.0018


--------------------------------------- Iteration      1(   1)  ---------------------------------------


    POTLOK:  cpu time    0.0859: real time    0.2244
    SETDIJ:  cpu time    0.0086: real time    0.0192
    TRIAL :  cpu time    0.0710: real time    0.0721
    CORREC:  cpu time    0.0002: real time    0.0002
    --------------------------------------------
      LOOP:  cpu time    0.1675: real time    0.3229

 eigenvalue-minimisations  :  1371
 total energy-change (2. order) : 0.1875103E+03  (-0.6607902E+03)
 number of electron      18.0000000 magnetization       0.0000000      0.0000000      0.0000000
 augmentation part       18.0000000 magnetization       0.0000000      0.0000000      0.0000000

 Free energy of the ion-electron system (eV)
  ---------------------------------------------------
  alpha Z        PSCENC =        38.22227472
  Ewald energy   TEWEN  =     -1180.94574891
  -Hartree energ DENC   =      -574.28475018
  -exchange      EXHF   =         0.00000000
  -V(xc)+E(xc)   XCENC  =        30.05432960
  PAW double counting   =      1528.00464014    -1497.73841135
  entropy T*S    EENTRO =        -0.00008974
  eigenvalues    EBANDS =        97.18758186
  atomic energy  EATOM  =      1747.01046045
  ---------------------------------------------------
  free energy    TOTEN  =       187.51028658 eV

  energy without entropy =      187.51037631  energy(sigma->0) =      187.51031649


--------------------------------------------------------------------------------------------------------




--------------------------------------- Iteration      1(   2)  ---------------------------------------


    TRIAL :  cpu time    0.0742: real time    0.0752
    CORREC:  cpu time    0.0002: real time    0.0002
    --------------------------------------------
      LOOP:  cpu time    0.0754: real time    0.0763

 eigenvalue-minimisations  :  1857
 total energy-change (2. order) :-0.1360098E+03  (-0.1329183E+03)
 number of electron      18.0000000 magnetization       0.0000000      0.0000000      0.0000000
 augmentation part       18.0000000 magnetization       0.0000000      0.0000000      0.0000000

 Free energy of the ion-electron system (eV)
  ---------------------------------------------------
  alpha Z        PSCENC =        38.22227472
  Ewald energy   TEWEN  =     -1180.94574891
  -Hartree energ DENC   =      -574.28475018
  -exchange      EXHF   =         0.00000000
  -V(xc)+E(xc)   XCENC  =        30.05432960
  PAW double counting   =      1528.00464014    -1497.73841135
  entropy T*S    EENTRO =        -0.00021140
  eigenvalues    EBANDS =       -38.82212524
  atomic energy  EATOM  =      1747.01046045
  ---------------------------------------------------
  free energy    TOTEN  =        51.50045781 eV

  energy without entropy =       51.50066922  energy(sigma->0) =       51.50052828


--------------------------------------------------------------------------------------------------------




--------------------------------------- Iteration      1(   3)  ---------------------------------------


    TRIAL :  cpu time    0.0638: real time    0.0644
    CORREC:  cpu time    0.0002: real time    0.0002
    --------------------------------------------
      LOOP:  cpu time    0.0641: real time    0.0648

 eigenvalue-minimisations  :  1701
 total energy-change (2. order) :-0.4421716E+02  (-0.4285425E+02)
 number of electron      18.0000000 magnetization       0.0000000      0.0000000      0.0000000
 augmentation part       18.0000000 magnetization       0.0000000      0.0000000      0.0000000

 Free energy of the ion-electron system (eV)
  ---------------------------------------------------
  alpha Z        PSCENC =        38.22227472
  Ewald energy   TEWEN  =     -1180.94574891
  -Hartree energ DENC   =      -574.28475018
  -exchange      EXHF   =         0.00000000
  -V(xc)+E(xc)   XCENC  =        30.05432960
  PAW double counting   =      1528.00464014    -1497.73841135
  entropy T*S    EENTRO =         0.00003304
  eigenvalues    EBANDS =       -83.03953000
  atomic energy  EATOM  =      1747.01046045
  ---------------------------------------------------
  free energy    TOTEN  =         7.28329750 eV

  energy without entropy =        7.28326445  energy(sigma->0) =        7.28328648


--------------------------------------------------------------------------------------------------------




--------------------------------------- Iteration      1(   4)  ---------------------------------------


    TRIAL :  cpu time    0.0788: real time    0.0800
    CORREC:  cpu time    0.0002: real time    0.0002
    --------------------------------------------
      LOOP:  cpu time    0.0792: real time    0.0803

 eigenvalue-minimisations  :  2466
 total energy-change (2. order) :-0.1619087E+02  (-0.1593301E+02)
 number of electron      18.0000000 magnetization       0.0000000      0.0000000      0.0000000
 augmentation part       18.0000000 magnetization       0.0000000      0.0000000      0.0000000

 Free energy of the ion-electron system (eV)
  ---------------------------------------------------
  alpha Z        PSCENC =        38.22227472
  Ewald energy   TEWEN  =     -1180.94574891
  -Hartree energ DENC   =      -574.28475018
  -exchange      EXHF   =         0.00000000
  -V(xc)+E(xc)   XCENC  =        30.05432960
  PAW double counting   =      1528.00464014    -1497.73841135
  entropy T*S    EENTRO =        -0.00005714
  eigenvalues    EBANDS =       -99.23031147
  atomic energy  EATOM  =      1747.01046045
  ---------------------------------------------------
  free energy    TOTEN  =        -8.90757415 eV

  energy without entropy =       -8.90751701  energy(sigma->0) =       -8.90755510


--------------------------------------------------------------------------------------------------------




--------------------------------------- Iteration      1(   5)  ---------------------------------------


    TRIAL :  cpu time    0.0789: real time    0.0798
    CORREC:  cpu time    0.0003: real time    0.0003
    CHARGE:  cpu time    0.0621: real time    0.1636
    --------------------------------------------
      LOOP:  cpu time    0.1414: real time    0.2438

 eigenvalue-minimisations  :  2520
 total energy-change (2. order) :-0.2467995E+01  (-0.2440157E+01)
 number of electron      17.9999986 magnetization       0.0000000      0.0000000      0.0000000
 augmentation part        6.2771641 magnetization       0.0000000      0.0000000      0.0000000

 Free energy of the ion-electron system (eV)
  ---------------------------------------------------
  alpha Z        PSCENC =        38.22227472
  Ewald energy   TEWEN  =     -1180.94574891
  -Hartree energ DENC   =      -574.28475018
  -exchange      EXHF   =         0.00000000
  -V(xc)+E(xc)   XCENC  =        30.05432960
  PAW double counting   =      1528.00464014    -1497.73841135
  entropy T*S    EENTRO =         0.00000423
  eigenvalues    EBANDS =      -101.69836734
  atomic energy  EATOM  =      1747.01046045
  ---------------------------------------------------
  free energy    TOTEN  =       -11.37556866 eV

  energy without entropy =      -11.37557288  energy(sigma->0) =      -11.37557007


--------------------------------------------------------------------------------------------------------




--------------------------------------- Iteration      1(   6)  ---------------------------------------


    POTLOK:  cpu time    0.0213: real time    0.0216
    SETDIJ:  cpu time    0.0072: real time    0.0073
    TRIAL :  cpu time    0.0324: real time    0.0331
    CORREC:  cpu time    0.0002: real time    0.0002
    CHARGE:  cpu time    0.0159: real time    0.0160
    --------------------------------------------
      LOOP:  cpu time    0.0772: real time    0.0784

 eigenvalue-minimisations  :     0
 total energy-change (2. order) : 0.1146446E+01  (-0.9071907E+00)
 number of electron      17.9999986 magnetization       0.0000000      0.0000000     -0.0000000
 augmentation part        6.3187484 magnetization       0.0000000      0.0000000     -0.0000000

 Free energy of the ion-electron system (eV)
  ---------------------------------------------------
  alpha Z        PSCENC =        38.22227472
  Ewald energy   TEWEN  =     -1180.94574891
  -Hartree energ DENC   =      -571.22434229
  -exchange      EXHF   =         0.00000000
  -V(xc)+E(xc)   XCENC  =        30.30963740
  PAW double counting   =     48205.64237828   -48177.19406065
  entropy T*S    EENTRO =         0.00000423
  eigenvalues    EBANDS =      -102.04972613
  atomic energy  EATOM  =      1747.01046045
  ---------------------------------------------------
  free energy    TOTEN  =       -10.22912291 eV

  energy without entropy =      -10.22912714  energy(sigma->0) =      -10.22912432


--------------------------------------------------------------------------------------------------------




--------------------------------------- Iteration      1(   7)  ---------------------------------------


    POTLOK:  cpu time    0.0198: real time    0.0200
    SETDIJ:  cpu time    0.0080: real time    0.0080
    TRIAL :  cpu time    0.0311: real time    0.0317
    CORREC:  cpu time    0.0002: real time    0.0002
    CHARGE:  cpu time    0.0120: real time    0.0121
    --------------------------------------------
      LOOP:  cpu time    0.0714: real time    0.0724

 eigenvalue-minimisations  :     0
 total energy-change (2. order) :-0.6877392E+00  (-0.5319275E+00)
 number of electron      17.9999986 magnetization       0.0000000      0.0000000     -0.0000000
 augmentation part        6.2778138 magnetization       0.0000000      0.0000000     -0.0000000

 Free energy of the ion-electron system (eV)
  ---------------------------------------------------
  alpha Z        PSCENC =        38.22227472
  Ewald energy   TEWEN  =     -1180.94574891
  -Hartree energ DENC   =      -574.18936173
  -exchange      EXHF   =         0.00000000
  -V(xc)+E(xc)   XCENC  =        30.44338602
  PAW double counting   =     33432.27452978   -33403.70801353
  entropy T*S    EENTRO =         0.00000423
  eigenvalues    EBANDS =      -100.02439309
  atomic energy  EATOM  =      1747.01046045
  ---------------------------------------------------
  free energy    TOTEN  =       -10.91686206 eV

  energy without entropy =      -10.91686629  energy(sigma->0) =      -10.91686347


--------------------------------------------------------------------------------------------------------




--------------------------------------- Iteration      1(   8)  ---------------------------------------


    POTLOK:  cpu time    0.0196: real time    0.0198
    SETDIJ:  cpu time    0.0074: real time    0.0079
    TRIAL :  cpu time    0.0310: real time    0.0316
    CORREC:  cpu time    0.0002: real time    0.0002
    CHARGE:  cpu time    0.0120: real time    0.0121
    --------------------------------------------
      LOOP:  cpu time    0.0705: real time    0.0719

 eigenvalue-minimisations  :     0
 total energy-change (2. order) :-0.3704143E+00  (-0.2056684E+00)
 number of electron      17.9999986 magnetization       0.0000000      0.0000000      0.0000000
 augmentation part        6.2735872 magnetization       0.0000000      0.0000000      0.0000000

 Free energy of the ion-electron system (eV)
  ---------------------------------------------------
  alpha Z        PSCENC =        38.22227472
  Ewald energy   TEWEN  =     -1180.94574891
  -Hartree energ DENC   =      -570.32457810
  -exchange      EXHF   =         0.00000000
  -V(xc)+E(xc)   XCENC  =        30.29277789
  PAW double counting   =     22107.13591236   -22078.26409486
  entropy T*S    EENTRO =         0.00000423
  eigenvalues    EBANDS =      -104.41428410
  atomic energy  EATOM  =      1747.01046045
  ---------------------------------------------------
  free energy    TOTEN  =       -11.28727634 eV

  energy without entropy =      -11.28728056  energy(sigma->0) =      -11.28727774


--------------------------------------------------------------------------------------------------------




--------------------------------------- Iteration      1(   9)  ---------------------------------------


    POTLOK:  cpu time    0.0194: real time    0.0196
    SETDIJ:  cpu time    0.0076: real time    0.0076
    TRIAL :  cpu time    0.0308: real time    0.0314
    CORREC:  cpu time    0.0002: real time    0.0002
    CHARGE:  cpu time    0.0126: real time    0.0127
    --------------------------------------------
      LOOP:  cpu time    0.0708: real time    0.0718

 eigenvalue-minimisations  :     0
 total energy-change (2. order) :-0.1482124E+00  (-0.8880583E-01)
 number of electron      17.9999986 magnetization       0.0000000     -0.0000000     -0.0000000
 augmentation part        6.2662937 magnetization       0.0000000     -0.0000000     -0.0000000

 Free energy of the ion-electron system (eV)
  ---------------------------------------------------
  alpha Z        PSCENC =        38.22227472
  Ewald energy   TEWEN  =     -1180.94574891
  -Hartree energ DENC   =      -571.50282632
  -exchange      EXHF   =         0.00000000
  -V(xc)+E(xc)   XCENC  =        30.33228058
  PAW double counting   =     15978.96825029   -15950.20075432
  entropy T*S    EENTRO =         0.00000423
  eigenvalues    EBANDS =      -103.31942944
  atomic energy  EATOM  =      1747.01046045
  ---------------------------------------------------
  free energy    TOTEN  =       -11.43548873 eV

  energy without entropy =      -11.43549295  energy(sigma->0) =      -11.43549013


--------------------------------------------------------------------------------------------------------




--------------------------------------- Iteration      1(  10)  ---------------------------------------


    POTLOK:  cpu time    0.0197: real time    0.0199
    SETDIJ:  cpu time    0.0082: real time    0.0082
    TRIAL :  cpu time    0.0306: real time    0.0313
    CORREC:  cpu time    0.0002: real time    0.0002
    CHARGE:  cpu time    0.0120: real time    0.0121
    --------------------------------------------
      LOOP:  cpu time    0.0709: real time    0.0719

 eigenvalue-minimisations  :     0
 total energy-change (2. order) :-0.6744145E-01  (-0.4403319E-01)
 number of electron      17.9999986 magnetization      -0.0000000     -0.0000000     -0.0000000
 augmentation part        6.2516049 magnetization      -0.0000000     -0.0000000     -0.0000000

 Free energy of the ion-electron system (eV)
  ---------------------------------------------------
  alpha Z        PSCENC =        38.22227472
  Ewald energy   TEWEN  =     -1180.94574891
  -Hartree energ DENC   =      -572.53804337
  -exchange      EXHF   =         0.00000000
  -V(xc)+E(xc)   XCENC  =        30.36283259
  PAW double counting   =     12966.55242334   -12937.96770778
  entropy T*S    EENTRO =         0.00000423
  eigenvalues    EBANDS =      -102.19942544
  atomic energy  EATOM  =      1747.01046045
  ---------------------------------------------------
  free energy    TOTEN  =       -11.50293018 eV

  energy without entropy =      -11.50293440  energy(sigma->0) =      -11.50293159


--------------------------------------------------------------------------------------------------------




--------------------------------------- Iteration      1(  11)  ---------------------------------------


    POTLOK:  cpu time    0.0196: real time    0.0197
    SETDIJ:  cpu time    0.0074: real time    0.0075
    TRIAL :  cpu time    0.0327: real time    0.0333
    CORREC:  cpu time    0.0002: real time    0.0002
    CHARGE:  cpu time    0.0121: real time    0.0122
    --------------------------------------------
      LOOP:  cpu time    0.0722: real time    0.0731

 eigenvalue-minimisations  :     0
 total energy-change (2. order) :-0.3375870E-01  (-0.1920802E-01)
 number of electron      17.9999986 magnetization      -0.0000000     -0.0000000     -0.0000000
 augmentation part        6.2492750 magnetization      -0.0000000     -0.0000000     -0.0000000

 Free energy of the ion-electron system (eV)
  ---------------------------------------------------
  alpha Z        PSCENC =        38.22227472
  Ewald energy   TEWEN  =     -1180.94574891
  -Hartree energ DENC   =      -572.14782119
  -exchange      EXHF   =         0.00000000
  -V(xc)+E(xc)   XCENC  =        30.33840760
  PAW double counting   =     11512.71872415   -11484.23502362
  entropy T*S    EENTRO =         0.00000423
  eigenvalues    EBANDS =      -102.49796629
  atomic energy  EATOM  =      1747.01046045
  ---------------------------------------------------
  free energy    TOTEN  =       -11.53668887 eV

  energy without entropy =      -11.53669310  energy(sigma->0) =      -11.53669028


--------------------------------------------------------------------------------------------------------




--------------------------------------- Iteration      1(  12)  ---------------------------------------


    POTLOK:  cpu time    0.0194: real time    0.0195
    SETDIJ:  cpu time    0.0074: real time    0.0075
    TRIAL :  cpu time    0.0324: real time    0.0330
    CORREC:  cpu time    0.0002: real time    0.0002
    CHARGE:  cpu time    0.0126: real time    0.0127
    --------------------------------------------
      LOOP:  cpu time    0.0721: real time    0.0731

 eigenvalue-minimisations  :     0
 total energy-change (2. order) :-0.1481060E-01  (-0.8202978E-02)
 number of electron      17.9999986 magnetization       0.0000000      0.0000000      0.0000000
 augmentation part        6.2504324 magnetization       0.0000000      0.0000000      0.0000000

 Free energy of the ion-electron system (eV)
  ---------------------------------------------------
  alpha Z        PSCENC =        38.22227472
  Ewald energy   TEWEN  =     -1180.94574891
  -Hartree energ DENC   =      -572.31116752
  -exchange      EXHF   =         0.00000000
  -V(xc)+E(xc)   XCENC  =        30.33924430
  PAW double counting   =     10812.86017750   -10784.45321280
  entropy T*S    EENTRO =         0.00000432
  eigenvalues    EBANDS =      -102.27353144
  atomic energy  EATOM  =      1747.01046045
  ---------------------------------------------------
  free energy    TOTEN  =       -11.55149947 eV

  energy without entropy =      -11.55150379  energy(sigma->0) =      -11.55150091


--------------------------------------------------------------------------------------------------------




--------------------------------------- Iteration      1(  13)  ---------------------------------------


    POTLOK:  cpu time    0.0192: real time    0.0194
    SETDIJ:  cpu time    0.0093: real time    0.0093
    TRIAL :  cpu time    0.0313: real time    0.0319
    CORREC:  cpu time    0.0002: real time    0.0002
    CHARGE:  cpu time    0.0128: real time    0.0129
    --------------------------------------------
      LOOP:  cpu time    0.0731: real time    0.0740

 eigenvalue-minimisations  :     0
 total energy-change (2. order) :-0.6508729E-02  (-0.3874742E-02)
 number of electron      17.9999986 magnetization      -0.0000000      0.0000000     -0.0000000
 augmentation part        6.2493231 magnetization      -0.0000000      0.0000000     -0.0000000

 Free energy of the ion-electron system (eV)
  ---------------------------------------------------
  alpha Z        PSCENC =        38.22227472
  Ewald energy   TEWEN  =     -1180.94574891
  -Hartree energ DENC   =      -572.47620947
  -exchange      EXHF   =         0.00000000
  -V(xc)+E(xc)   XCENC  =        30.34344994
  PAW double counting   =     10489.07814371   -10460.69970107
  entropy T*S    EENTRO =         0.00000675
  eigenvalues    EBANDS =      -102.09068189
  atomic energy  EATOM  =      1747.01046045
  ---------------------------------------------------
  free energy    TOTEN  =       -11.55800820 eV

  energy without entropy =      -11.55801496  energy(sigma->0) =      -11.55801045


--------------------------------------------------------------------------------------------------------




--------------------------------------- Iteration      1(  14)  ---------------------------------------


    POTLOK:  cpu time    0.0207: real time    0.0209
    SETDIJ:  cpu time    0.0065: real time    0.0066
    TRIAL :  cpu time    0.0324: real time    0.0330
    CORREC:  cpu time    0.0002: real time    0.0002
    CHARGE:  cpu time    0.0121: real time    0.0122
    --------------------------------------------
      LOOP:  cpu time    0.0726: real time    0.0736

 eigenvalue-minimisations  :     0
 total energy-change (2. order) :-0.3163882E-02  (-0.1953825E-02)
 number of electron      17.9999986 magnetization       0.0000000     -0.0000000      0.0000000
 augmentation part        6.2489594 magnetization       0.0000000     -0.0000000      0.0000000

 Free energy of the ion-electron system (eV)
  ---------------------------------------------------
  alpha Z        PSCENC =        38.22227472
  Ewald energy   TEWEN  =     -1180.94574891
  -Hartree energ DENC   =      -572.33491276
  -exchange      EXHF   =         0.00000000
  -V(xc)+E(xc)   XCENC  =        30.33763592
  PAW double counting   =     10356.31768169   -10327.92854894
  entropy T*S    EENTRO =         0.00001661
  eigenvalues    EBANDS =      -102.24002100
  atomic energy  EATOM  =      1747.01046045
  ---------------------------------------------------
  free energy    TOTEN  =       -11.56117208 eV

  energy without entropy =      -11.56118869  energy(sigma->0) =      -11.56117762


--------------------------------------------------------------------------------------------------------




--------------------------------------- Iteration      1(  15)  ---------------------------------------


    POTLOK:  cpu time    0.0194: real time    0.0196
    SETDIJ:  cpu time    0.0074: real time    0.0075
    TRIAL :  cpu time    0.0309: real time    0.0315
    CORREC:  cpu time    0.0002: real time    0.0002
    CHARGE:  cpu time    0.0125: real time    0.0127
    --------------------------------------------
      LOOP:  cpu time    0.0707: real time    0.0717

 eigenvalue-minimisations  :     0
 total energy-change (2. order) :-0.1641146E-02  (-0.1008725E-02)
 number of electron      17.9999986 magnetization      -0.0000000     -0.0000000      0.0000000
 augmentation part        6.2496577 magnetization      -0.0000000     -0.0000000      0.0000000

 Free energy of the ion-electron system (eV)
  ---------------------------------------------------
  alpha Z        PSCENC =        38.22227472
  Ewald energy   TEWEN  =     -1180.94574891
  -Hartree energ DENC   =      -572.29614560
  -exchange      EXHF   =         0.00000000
  -V(xc)+E(xc)   XCENC  =        30.33658801
  PAW double counting   =     10318.58016974   -10290.18256053
  entropy T*S    EENTRO =        -0.00001412
  eigenvalues    EBANDS =      -102.28786772
  atomic energy  EATOM  =      1747.01046045
  ---------------------------------------------------
  free energy    TOTEN  =       -11.56281323 eV

  energy without entropy =      -11.56279911  energy(sigma->0) =      -11.56280852


--------------------------------------------------------------------------------------------------------




--------------------------------------- Iteration      1(  16)  ---------------------------------------


    POTLOK:  cpu time    0.0197: real time    0.0198
    SETDIJ:  cpu time    0.0074: real time    0.0074
    TRIAL :  cpu time    0.0304: real time    0.0310
    CORREC:  cpu time    0.0002: real time    0.0002
    CHARGE:  cpu time    0.0120: real time    0.0121
    --------------------------------------------
      LOOP:  cpu time    0.0699: real time    0.0708

 eigenvalue-minimisations  :     0
 total energy-change (2. order) :-0.1029276E-02  (-0.7689536E-03)
 number of electron      17.9999986 magnetization      -0.0000000      0.0000000      0.0000000
 augmentation part        6.2500725 magnetization      -0.0000000      0.0000000      0.0000000

 Free energy of the ion-electron system (eV)
  ---------------------------------------------------
  alpha Z        PSCENC =        38.22227472
  Ewald energy   TEWEN  =     -1180.94574891
  -Hartree energ DENC   =      -572.35924602
  -exchange      EXHF   =         0.00000000
  -V(xc)+E(xc)   XCENC  =        30.33991054
  PAW double counting   =     10326.25775304   -10297.85814592
  entropy T*S    EENTRO =        -0.00002855
  eigenvalues    EBANDS =      -102.23108628
  atomic energy  EATOM  =      1747.01046045
  ---------------------------------------------------
  free energy    TOTEN  =       -11.56384251 eV

  energy without entropy =      -11.56381396  energy(sigma->0) =      -11.56383299


--------------------------------------------------------------------------------------------------------




--------------------------------------- Iteration      1(  17)  ---------------------------------------


    POTLOK:  cpu time    0.0193: real time    0.0194
    SETDIJ:  cpu time    0.0077: real time    0.0077
    TRIAL :  cpu time    0.0311: real time    0.0317
    CORREC:  cpu time    0.0002: real time    0.0002
    CHARGE:  cpu time    0.0120: real time    0.0121
    --------------------------------------------
      LOOP:  cpu time    0.0705: real time    0.0715

 eigenvalue-minimisations  :     0
 total energy-change (2. order) :-0.6649336E-03  (-0.3521652E-03)
 number of electron      17.9999986 magnetization       0.0000000      0.0000000      0.0000000
 augmentation part        6.2500764 magnetization       0.0000000      0.0000000      0.0000000

 Free energy of the ion-electron system (eV)
  ---------------------------------------------------
  alpha Z        PSCENC =        38.22227472
  Ewald energy   TEWEN  =     -1180.94574891
  -Hartree energ DENC   =      -572.36610452
  -exchange      EXHF   =         0.00000000
  -V(xc)+E(xc)   XCENC  =        30.34105859
  PAW double counting   =     10351.78270425   -10323.37896930
  entropy T*S    EENTRO =        -0.00001715
  eigenvalues    EBANDS =      -102.23015417
  atomic energy  EATOM  =      1747.01046045
  ---------------------------------------------------
  free energy    TOTEN  =       -11.56450744 eV

  energy without entropy =      -11.56449029  energy(sigma->0) =      -11.56450172


--------------------------------------------------------------------------------------------------------




--------------------------------------- Iteration      1(  18)  ---------------------------------------


    POTLOK:  cpu time    0.0190: real time    0.0192
    SETDIJ:  cpu time    0.0076: real time    0.0076
    TRIAL :  cpu time    0.0304: real time    0.0311
    CORREC:  cpu time    0.0002: real time    0.0002
    CHARGE:  cpu time    0.0127: real time    0.0128
    --------------------------------------------
      LOOP:  cpu time    0.0704: real time    0.0756

 eigenvalue-minimisations  :     0
 total energy-change (2. order) :-0.2752111E-03  (-0.1517332E-03)
 number of electron      17.9999986 magnetization      -0.0000000     -0.0000000     -0.0000000
 augmentation part        6.2502273 magnetization      -0.0000000     -0.0000000     -0.0000000

 Free energy of the ion-electron system (eV)
  ---------------------------------------------------
  alpha Z        PSCENC =        38.22227472
  Ewald energy   TEWEN  =     -1180.94574891
  -Hartree energ DENC   =      -572.35431675
  -exchange      EXHF   =         0.00000000
  -V(xc)+E(xc)   XCENC  =        30.34071409
  PAW double counting   =     10377.56975351   -10349.16490785
  entropy T*S    EENTRO =        -0.00000965
  eigenvalues    EBANDS =      -102.24299476
  atomic energy  EATOM  =      1747.01046045
  ---------------------------------------------------
  free energy    TOTEN  =       -11.56478265 eV

  energy without entropy =      -11.56477300  energy(sigma->0) =      -11.56477943


--------------------------------------------------------------------------------------------------------




--------------------------------------- Iteration      1(  19)  ---------------------------------------


    POTLOK:  cpu time    0.0193: real time    0.0195
    SETDIJ:  cpu time    0.0075: real time    0.0076
    TRIAL :  cpu time    0.0305: real time    0.0311
    CORREC:  cpu time    0.0002: real time    0.0002
    CHARGE:  cpu time    0.0121: real time    0.0121
    --------------------------------------------
      LOOP:  cpu time    0.0698: real time    0.0707

 eigenvalue-minimisations  :     0
 total energy-change (2. order) :-0.1507808E-03  (-0.1098915E-03)
 number of electron      17.9999986 magnetization      -0.0000000      0.0000000      0.0000000
 augmentation part        6.2504126 magnetization      -0.0000000      0.0000000      0.0000000

 Free energy of the ion-electron system (eV)
  ---------------------------------------------------
  alpha Z        PSCENC =        38.22227472
  Ewald energy   TEWEN  =     -1180.94574891
  -Hartree energ DENC   =      -572.36022558
  -exchange      EXHF   =         0.00000000
  -V(xc)+E(xc)   XCENC  =        30.34097659
  PAW double counting   =     10397.43595783   -10369.03136408
  entropy T*S    EENTRO =         0.00000383
  eigenvalues    EBANDS =      -102.23725480
  atomic energy  EATOM  =      1747.01046045
  ---------------------------------------------------
  free energy    TOTEN  =       -11.56493343 eV

  energy without entropy =      -11.56493727  energy(sigma->0) =      -11.56493471


--------------------------------------------------------------------------------------------------------




--------------------------------------- Iteration      1(  20)  ---------------------------------------


    POTLOK:  cpu time    0.0194: real time    0.0195
    SETDIJ:  cpu time    0.0076: real time    0.0076
    TRIAL :  cpu time    0.0311: real time    0.0317
    CORREC:  cpu time    0.0002: real time    0.0002
    CHARGE:  cpu time    0.0120: real time    0.0121
    --------------------------------------------
      LOOP:  cpu time    0.0704: real time    0.0713

 eigenvalue-minimisations  :     0
 total energy-change (2. order) :-0.1278202E-03  (-0.9775544E-04)
 number of electron      17.9999986 magnetization       0.0000000      0.0000000      0.0000000
 augmentation part        6.2505680 magnetization       0.0000000      0.0000000      0.0000000

 Free energy of the ion-electron system (eV)
  ---------------------------------------------------
  alpha Z        PSCENC =        38.22227472
  Ewald energy   TEWEN  =     -1180.94574891
  -Hartree energ DENC   =      -572.36185376
  -exchange      EXHF   =         0.00000000
  -V(xc)+E(xc)   XCENC  =        30.34129083
  PAW double counting   =     10410.56012052   -10382.15435474
  entropy T*S    EENTRO =         0.00002220
  eigenvalues    EBANDS =      -102.23725420
  atomic energy  EATOM  =      1747.01046045
  ---------------------------------------------------
  free energy    TOTEN  =       -11.56506125 eV

  energy without entropy =      -11.56508345  energy(sigma->0) =      -11.56506865


--------------------------------------------------------------------------------------------------------




--------------------------------------- Iteration      1(  21)  ---------------------------------------


    POTLOK:  cpu time    0.0193: real time    0.0194
    SETDIJ:  cpu time    0.0077: real time    0.0077
    TRIAL :  cpu time    0.0304: real time    0.0310
    CORREC:  cpu time    0.0002: real time    0.0002
    CHARGE:  cpu time    0.0125: real time    0.0126
    --------------------------------------------
      LOOP:  cpu time    0.0702: real time    0.0711

 eigenvalue-minimisations  :     0
 total energy-change (2. order) :-0.9907879E-04  (-0.6021790E-04)
 number of electron      17.9999986 magnetization      -0.0000000     -0.0000000     -0.0000000
 augmentation part        6.2506712 magnetization      -0.0000000     -0.0000000     -0.0000000

 Free energy of the ion-electron system (eV)
  ---------------------------------------------------
  alpha Z        PSCENC =        38.22227472
  Ewald energy   TEWEN  =     -1180.94574891
  -Hartree energ DENC   =      -572.35969088
  -exchange      EXHF   =         0.00000000
  -V(xc)+E(xc)   XCENC  =        30.34149883
  PAW double counting   =     10417.86908041   -10389.46170499
  entropy T*S    EENTRO =         0.00003037
  eigenvalues    EBANDS =      -102.24135216
  atomic energy  EATOM  =      1747.01046045
  ---------------------------------------------------
  free energy    TOTEN  =       -11.56516033 eV

  energy without entropy =      -11.56519070  energy(sigma->0) =      -11.56517045


--------------------------------------------------------------------------------------------------------




--------------------------------------- Iteration      1(  22)  ---------------------------------------


    POTLOK:  cpu time    0.0194: real time    0.0195
    SETDIJ:  cpu time    0.0078: real time    0.0078
    TRIAL :  cpu time    0.0305: real time    0.0311
    CORREC:  cpu time    0.0002: real time    0.0002
    CHARGE:  cpu time    0.0120: real time    0.0121
    --------------------------------------------
      LOOP:  cpu time    0.0701: real time    0.0710

 eigenvalue-minimisations  :     0
 total energy-change (2. order) :-0.4182808E-04  (-0.1109035E-04)
 number of electron      17.9999986 magnetization      -0.0000000     -0.0000000     -0.0000000
 augmentation part        6.2506468 magnetization      -0.0000000     -0.0000000     -0.0000000

 Free energy of the ion-electron system (eV)
  ---------------------------------------------------
  alpha Z        PSCENC =        38.22227472
  Ewald energy   TEWEN  =     -1180.94574891
  -Hartree energ DENC   =      -572.36402947
  -exchange      EXHF   =         0.00000000
  -V(xc)+E(xc)   XCENC  =        30.34175757
  PAW double counting   =     10420.60111961   -10392.19352370
  entropy T*S    EENTRO =         0.00001971
  eigenvalues    EBANDS =      -102.23754279
  atomic energy  EATOM  =      1747.01046045
  ---------------------------------------------------
  free energy    TOTEN  =       -11.56520216 eV

  energy without entropy =      -11.56522186  energy(sigma->0) =      -11.56520873


--------------------------------------------------------------------------------------------------------




--------------------------------------- Iteration      1(  23)  ---------------------------------------


    POTLOK:  cpu time    0.0194: real time    0.0196
    SETDIJ:  cpu time    0.0075: real time    0.0075
    TRIAL :  cpu time    0.0310: real time    0.0316
    CORREC:  cpu time    0.0002: real time    0.0002
    CHARGE:  cpu time    0.0120: real time    0.0121
    --------------------------------------------
      LOOP:  cpu time    0.0704: real time    0.0713

 eigenvalue-minimisations  :     0
 total energy-change (2. order) :-0.2385139E-04  (-0.7776132E-05)
 number of electron      17.9999986 magnetization       0.0000000     -0.0000000      0.0000000
 augmentation part        6.2506512 magnetization       0.0000000     -0.0000000      0.0000000

 Free energy of the ion-electron system (eV)
  ---------------------------------------------------
  alpha Z        PSCENC =        38.22227472
  Ewald energy   TEWEN  =     -1180.94574891
  -Hartree energ DENC   =      -572.36177159
  -exchange      EXHF   =         0.00000000
  -V(xc)+E(xc)   XCENC  =        30.34166603
  PAW double counting   =     10420.67700928   -10392.26931160
  entropy T*S    EENTRO =         0.00001647
  eigenvalues    EBANDS =      -102.23982410
  atomic energy  EATOM  =      1747.01046045
  ---------------------------------------------------
  free energy    TOTEN  =       -11.56522601 eV

  energy without entropy =      -11.56524248  energy(sigma->0) =      -11.56523150


--------------------------------------------------------------------------------------------------------




--------------------------------------- Iteration      1(  24)  ---------------------------------------


    POTLOK:  cpu time    0.0194: real time    0.0196
    SETDIJ:  cpu time    0.0077: real time    0.0077
    TRIAL :  cpu time    0.0304: real time    0.0310
    CORREC:  cpu time    0.0002: real time    0.0002
    EDDIAG:  cpu time    0.0118: real time    0.0119
    CHARGE:  cpu time    0.0120: real time    0.0121
    --------------------------------------------
      LOOP:  cpu time    0.0816: real time    0.0827

 eigenvalue-minimisations  :     0
 total energy-change (2. order) :-0.5969538E-05  (-0.2707829E-05)
 number of electron      17.9999986 magnetization      -0.0000000     -0.0000000      0.0000000
 augmentation part        6.2506298 magnetization      -0.0000000     -0.0000000      0.0000000

 Free energy of the ion-electron system (eV)
  ---------------------------------------------------
  alpha Z        PSCENC =        38.22227472
  Ewald energy   TEWEN  =     -1180.94574891
  -Hartree energ DENC   =      -572.36360965
  -exchange      EXHF   =         0.00000000
  -V(xc)+E(xc)   XCENC  =        30.34174045
  PAW double counting   =     10419.61174471   -10391.20413904
  entropy T*S    EENTRO =         0.00001524
  eigenvalues    EBANDS =      -102.23797118
  atomic energy  EATOM  =      1747.01046045
  ---------------------------------------------------
  free energy    TOTEN  =       -11.56523198 eV

  energy without entropy =      -11.56524722  energy(sigma->0) =      -11.56523706


--------------------------------------------------------------------------------------------------------


  average scaling for gradient   1.4759


 average (electrostatic) potential at core
  the test charge radii are     1.0774  1.0621
  (the norm of the test charge is              1.0000)
       1 -96.4924       2 -49.5732
 
 
 
 E-fermi :   4.2454     XC(G=0):  -9.0191     alpha+bet :-10.0479


 k-point     1 :       0.0000    0.0000    0.0000
  band No.  band energies     occupation 
      1     -10.2675      1.00000
      2     -10.2675      1.00000
      3     -10.2675      1.00000
      4     -10.2675      1.00000
      5      -9.4767      1.00000
      6      -9.4767      1.00000
      7      -9.3907      1.00000
      8      -9.3907      1.00000
      9      -9.3907      1.00000
     10      -9.3907      1.00000
     11      -7.3172      1.00000
     12      -7.3172      1.00000
     13       3.8099      1.00000
     14       3.8099      1.00000
     15       4.1303      1.00271
     16       4.1303      1.00274
     17       4.1303      1.00297
     18       4.1305      1.00559
     19       4.2873     -0.00036
     20       4.2875     -0.01365
     21       7.8461      0.00000

 k-point     2 :       0.1429    0.0000    0.0000
  band No.  band energies     occupation 
      1     -10.2721      1.00000
      2     -10.2721      1.00000
      3     -10.2699      1.00000
      4     -10.2619      1.00000
      5      -9.4814      1.00000
      6      -9.4814      1.00000
      7      -9.4004      1.00000
      8      -9.4004      1.00000
      9      -9.3895      1.00000
     10      -9.3797      1.00000
     11      -7.1159      1.00000
     12      -7.1159      1.00000
     13       2.0986      1.00000
     14       2.0986      1.00000
     15       3.6577      1.00000
     16       3.6577      1.00000
     17       3.8700      1.00000
     18       3.8799      1.00000
     19       5.4239     -0.00000
     20       5.4239     -0.00000
     21       8.0394      0.00000

 k-point     3 :       0.2857    0.0000    0.0000
  band No.  band energies     occupation 
      1     -10.2835      1.00000
      2     -10.2835      1.00000
      3     -10.2674      1.00000
      4     -10.2576      1.00000
      5      -9.4904      1.00000
      6      -9.4904      1.00000
      7      -9.4171      1.00000
      8      -9.4171      1.00000
      9      -9.3764      1.00000
     10      -9.3642      1.00000
     11      -6.5836      1.00000
     12      -6.5836      1.00000
     13       0.1102      1.00000
     14       0.1102      1.00000
     15       3.2013      1.00000
     16       3.2013      1.00000
     17       3.4195      1.00000
     18       3.4302      1.00000
     19       5.4837     -0.00000
     20       5.4837     -0.00000
     21       8.6266      0.00000

 k-point     4 :       0.4286    0.0000    0.0000
  band No.  band energies     occupation 
      1     -10.2939      1.00000
      2     -10.2939      1.00000
      3     -10.2623      1.00000
      4     -10.2579      1.00000
      5      -9.4960      1.00000
      6      -9.4960      1.00000
      7      -9.4270      1.00000
      8      -9.4270      1.00000
      9      -9.3610      1.00000
     10      -9.3556      1.00000
     11      -6.0093      1.00000
     12      -6.0093      1.00000
     13      -1.2466      1.00000
     14      -1.2466      1.00000
     15       2.9095      1.00000
     16       2.9095      1.00000
     17       3.1333      1.00000
     18       3.1377      1.00000
     19       5.3319     -0.00000
     20       5.3319     -0.00000
     21       8.6855      0.00000

 k-point     5 :      -0.4286    0.0000    0.0000
  band No.  band energies     occupation 
      1     -10.2939      1.00000
      2     -10.2939      1.00000
      3     -10.2623      1.00000
      4     -10.2579      1.00000
      5      -9.4960      1.00000
      6      -9.4960      1.00000
      7      -9.4270      1.00000
      8      -9.4270      1.00000
      9      -9.3610      1.00000
     10      -9.3556      1.00000
     11      -6.0093      1.00000
     12      -6.0093      1.00000
     13      -1.2466      1.00000
     14      -1.2466      1.00000
     15       2.9095      1.00000
     16       2.9095      1.00000
     17       3.1333      1.00000
     18       3.1377      1.00000
     19       5.3319     -0.00000
     20       5.3319     -0.00000
     21       8.7117      0.00000

 k-point     6 :      -0.2857    0.0000    0.0000
  band No.  band energies     occupation 
      1     -10.2835      1.00000
      2     -10.2835      1.00000
      3     -10.2674      1.00000
      4     -10.2576      1.00000
      5      -9.4904      1.00000
      6      -9.4904      1.00000
      7      -9.4171      1.00000
      8      -9.4171      1.00000
      9      -9.3764      1.00000
     10      -9.3642      1.00000
     11      -6.5836      1.00000
     12      -6.5836      1.00000
     13       0.1102      1.00000
     14       0.1102      1.00000
     15       3.2013      1.00000
     16       3.2013      1.00000
     17       3.4195      1.00000
     18       3.4302      1.00000
     19       5.4837     -0.00000
     20       5.4837     -0.00000
     21       8.6374      0.00000

 k-point     7 :      -0.1429    0.0000    0.0000
[...]
  0.000   0.000   0.001   0.000   0.000   0.000   0.000   0.000  -0.000   0.000   0.000   0.000  -0.001   0.000   0.000   0.000
  0.000   0.000   0.000   0.000   0.000   0.000   0.001   0.000   0.000   0.000   0.000   0.000   0.000   0.000   0.000   0.000
  0.001   0.000   0.000   0.000  -0.000   0.000   0.000   0.000  -0.000   0.000  -0.002   0.000   0.000   0.000  -0.000   0.000
  0.000   0.000   0.001   0.000   0.000   0.000   0.000   0.000  -0.000   0.000   0.000   0.000  -0.002   0.000   0.000   0.000
 total augmentation occupancy for first ion, spin component:           1
  2.000   0.000   0.000   0.000  -0.000   0.010   0.000  -0.000  -0.000  -0.000   0.000  -0.000  -0.000  -0.087  -0.000   0.000
  0.000   2.000   0.000   0.000   0.000   0.000   0.010   0.000   0.000   0.000  -0.000  -0.000   0.000  -0.000  -0.087   0.000
 -0.000   0.000   1.998  -0.000   0.000   0.000  -0.000   0.005   0.000   0.000  -0.000   0.000  -0.000   0.000   0.000   0.000
  0.000   0.000   0.000   2.000   0.000   0.000  -0.000   0.000   0.010   0.000  -0.000  -0.000  -0.087   0.000  -0.000   0.051
 -0.000   0.000   0.000  -0.000   1.998   0.000  -0.000   0.000   0.000   0.005   0.000   0.000   0.000   0.000  -0.000  -0.000
  0.010   0.000  -0.000   0.000   0.000   0.035  -0.000  -0.000   0.000  -0.000   0.000   0.000   0.000  -0.640   0.000   0.000
 -0.000   0.010   0.000  -0.000   0.000  -0.000   0.035   0.000  -0.000  -0.000  -0.000   0.000   0.000  -0.000  -0.640   0.000
  0.000  -0.000   0.005  -0.000   0.000   0.000   0.000   0.010   0.000   0.000  -0.000   0.000   0.000   0.000  -0.000  -0.000
  0.000  -0.000  -0.000   0.010  -0.000   0.000  -0.000   0.000   0.035  -0.000   0.000   0.000  -0.640   0.000   0.000   0.257
 -0.000   0.000   0.000  -0.000   0.005   0.000   0.000   0.000   0.000   0.010   0.000   0.000  -0.000  -0.000  -0.000   0.000
 -0.000  -0.000  -0.000  -0.000   0.000  -0.000   0.000   0.000   0.000  -0.000   6.816  -3.171   0.000   0.000   0.000  -0.000
 -0.000   0.000   0.000   0.000   0.000   0.000   0.000   0.000   0.000   0.000  -3.171   1.626  -0.000   0.000   0.000  -0.000
  0.000  -0.000   0.000  -0.087  -0.000   0.000   0.000  -0.000  -0.640  -0.000  -0.000   0.000  19.842   0.000   0.000  -7.974
 -0.087   0.000   0.000   0.000   0.000  -0.640   0.000   0.000   0.000  -0.000  -0.000   0.000   0.000  19.842   0.000   0.000
 -0.000  -0.087   0.000   0.000  -0.000  -0.000  -0.640  -0.000   0.000  -0.000   0.000   0.000   0.000  -0.000  19.842   0.000
  0.000  -0.000   0.000   0.051  -0.000   0.000   0.000  -0.000   0.257   0.000  -0.000   0.000  -7.974   0.000  -0.000   3.209
  0.051  -0.000  -0.000  -0.000   0.000   0.257  -0.000   0.000   0.000  -0.000   0.000   0.000   0.000  -7.974  -0.000   0.000
  0.000   0.051   0.000  -0.000  -0.000  -0.000   0.257  -0.000  -0.000  -0.000  -0.000   0.000  -0.000  -0.000  -7.974   0.000
 total augmentation occupancy for first ion, spin component:           2
  0.000   0.000  -0.000   0.000   0.000   0.000   0.000   0.000  -0.000  -0.000   0.000  -0.000  -0.000   0.000  -0.000   0.000
  0.000   0.000   0.000   0.000   0.000  -0.000  -0.000   0.000  -0.000   0.000   0.000   0.000   0.000   0.000  -0.000   0.000
  0.000   0.000   0.000  -0.000   0.000  -0.000   0.000   0.000  -0.000   0.000   0.000   0.000  -0.000   0.000   0.000   0.000
 -0.000   0.000  -0.000  -0.000   0.000   0.000  -0.000  -0.000   0.000   0.000  -0.000   0.000   0.000   0.000  -0.000   0.000
 -0.000   0.000   0.000  -0.000   0.000   0.000   0.000  -0.000   0.000  -0.000   0.000  -0.000  -0.000   0.000   0.000   0.000
  0.000   0.000  -0.000   0.000  -0.000   0.000   0.000  -0.000  -0.000  -0.000   0.000   0.000   0.000  -0.000   0.000  -0.000
  0.000   0.000   0.000  -0.000   0.000   0.000  -0.000   0.000   0.000   0.000   0.000   0.000  -0.000   0.000  -0.000  -0.000
  0.000   0.000  -0.000   0.000   0.000  -0.000   0.000  -0.000  -0.000   0.000   0.000   0.000   0.000   0.000  -0.000   0.000
 -0.000   0.000   0.000   0.000   0.000   0.000   0.000  -0.000  -0.000  -0.000   0.000  -0.000   0.000  -0.000   0.000  -0.000
  0.000   0.000   0.000   0.000  -0.000   0.000   0.000   0.000   0.000   0.000  -0.000   0.000  -0.000  -0.000  -0.000  -0.000
 -0.000   0.000   0.000  -0.000   0.000   0.000   0.000  -0.000  -0.000   0.000  -0.000   0.000  -0.000  -0.000   0.000   0.000
 -0.000   0.000  -0.000   0.000  -0.000   0.000   0.000  -0.000   0.000   0.000   0.000   0.000   0.000  -0.000   0.000   0.000
 -0.000  -0.000   0.000   0.000  -0.000   0.000   0.000   0.000   0.000  -0.000   0.000  -0.000  -0.000   0.000  -0.000   0.000
  0.000  -0.000   0.000   0.000  -0.000   0.000  -0.000   0.000  -0.000   0.000   0.000   0.000  -0.000   0.000   0.000  -0.000
 -0.000  -0.000   0.000   0.000   0.000   0.000  -0.000  -0.000   0.000  -0.000   0.000   0.000  -0.000   0.000   0.000   0.000
  0.000  -0.000   0.000   0.000   0.000  -0.000   0.000   0.000  -0.000   0.000  -0.000   0.000   0.000  -0.000  -0.000  -0.000
  0.000  -0.000  -0.000  -0.000   0.000   0.000  -0.000   0.000   0.000  -0.000   0.000  -0.000   0.000  -0.000   0.000   0.000
 -0.000  -0.000  -0.000  -0.000  -0.000   0.000   0.000   0.000   0.000   0.000   0.000   0.000   0.000  -0.000   0.000  -0.000
 total augmentation occupancy for first ion, spin component:           3
  0.000  -0.000   0.000   0.000   0.000  -0.000   0.000  -0.000   0.000   0.000  -0.000   0.000  -0.000  -0.000   0.000  -0.000
  0.000   0.000  -0.000  -0.000   0.000  -0.000  -0.000   0.000   0.000   0.000  -0.000   0.000   0.000  -0.000  -0.000   0.000
  0.000  -0.000  -0.000  -0.000   0.000   0.000   0.000  -0.000  -0.000   0.000   0.000  -0.000  -0.000  -0.000  -0.000   0.000
 -0.000  -0.000  -0.000  -0.000   0.000  -0.000   0.000  -0.000  -0.000   0.000   0.000   0.000   0.000   0.000   0.000   0.000
 -0.000  -0.000   0.000   0.000   0.000   0.000  -0.000  -0.000   0.000  -0.000   0.000  -0.000   0.000   0.000  -0.000  -0.000
 -0.000  -0.000   0.000  -0.000   0.000   0.000   0.000  -0.000  -0.000  -0.000   0.000  -0.000  -0.000   0.000  -0.000   0.000
  0.000  -0.000   0.000  -0.000  -0.000  -0.000   0.000  -0.000  -0.000  -0.000   0.000   0.000   0.000   0.000   0.000   0.000
  0.000   0.000   0.000  -0.000   0.000   0.000  -0.000   0.000  -0.000   0.000   0.000   0.000   0.000  -0.000   0.000  -0.000
 -0.000   0.000  -0.000   0.000   0.000   0.000   0.000  -0.000  -0.000   0.000   0.000   0.000   0.000  -0.000   0.000   0.000
 -0.000  -0.000   0.000   0.000   0.000  -0.000  -0.000   0.000   0.000  -0.000  -0.000  -0.000  -0.000  -0.000   0.000   0.000
 -0.000  -0.000   0.000   0.000   0.000  -0.000   0.000   0.000   0.000  -0.000  -0.000   0.000   0.000  -0.000   0.000   0.000
 -0.000   0.000   0.000   0.000  -0.000   0.000   0.000   0.000   0.000  -0.000   0.000   0.000   0.000  -0.000  -0.000   0.000
 -0.000  -0.000  -0.000   0.000   0.000  -0.000  -0.000   0.000   0.000  -0.000   0.000   0.000  -0.000   0.000   0.000   0.000
  0.000  -0.000  -0.000  -0.000  -0.000  -0.000   0.000   0.000   0.000   0.000  -0.000  -0.000   0.000   0.000   0.000   0.000
  0.000  -0.000  -0.000  -0.000   0.000  -0.000  -0.000   0.000  -0.000   0.000  -0.000  -0.000   0.000  -0.000   0.000   0.000
 -0.000  -0.000   0.000   0.000  -0.000   0.000   0.000  -0.000   0.000   0.000   0.000   0.000   0.000  -0.000  -0.000   0.000
 -0.000   0.000   0.000   0.000  -0.000   0.000  -0.000  -0.000  -0.000   0.000   0.000  -0.000  -0.000   0.000  -0.000  -0.000
 -0.000  -0.000  -0.000  -0.000   0.000   0.000  -0.000   0.000   0.000   0.000   0.000  -0.000  -0.000   0.000   0.000   0.000
 total augmentation occupancy for first ion, spin component:           4
  0.000   0.000   0.000   0.000  -0.000  -0.000  -0.000  -0.000   0.000  -0.000   0.000  -0.000  -0.000   0.000  -0.000  -0.000
 -0.000  -0.000  -0.000  -0.000   0.000   0.000  -0.000   0.000   0.000  -0.000  -0.000  -0.000   0.000   0.000  -0.000  -0.000
  0.000  -0.000  -0.000  -0.000   0.000   0.000  -0.000   0.000  -0.000   0.000  -0.000  -0.000  -0.000   0.000  -0.000  -0.000
 -0.000   0.000  -0.000  -0.000   0.000   0.000  -0.000   0.000  -0.000   0.000  -0.000   0.000  -0.000   0.000  -0.000   0.000
 -0.000  -0.000   0.000  -0.000   0.000  -0.000   0.000   0.000   0.000  -0.000   0.000  -0.000   0.000  -0.000  -0.000   0.000
  0.000  -0.000   0.000   0.000  -0.000   0.000   0.000   0.000   0.000  -0.000   0.000   0.000  -0.000   0.000  -0.000   0.000
 -0.000   0.000  -0.000  -0.000   0.000  -0.000  -0.000  -0.000   0.000  -0.000  -0.000  -0.000  -0.000   0.000   0.000   0.000
 -0.000   0.000   0.000  -0.000   0.000   0.000   0.000   0.000  -0.000   0.000  -0.000   0.000   0.000   0.000  -0.000   0.000
 -0.000   0.000  -0.000   0.000   0.000   0.000  -0.000  -0.000  -0.000  -0.000   0.000  -0.000   0.000   0.000   0.000  -0.000
 -0.000   0.000   0.000  -0.000  -0.000  -0.000   0.000   0.000   0.000  -0.000   0.000   0.000  -0.000   0.000   0.000   0.000
  0.000  -0.000  -0.000  -0.000  -0.000   0.000  -0.000  -0.000  -0.000  -0.000  -0.000   0.000  -0.000   0.000  -0.000   0.000
 -0.000   0.000   0.000  -0.000  -0.000   0.000   0.000  -0.000  -0.000   0.000   0.000  -0.000   0.000   0.000  -0.000   0.000
  0.000   0.000   0.000  -0.000  -0.000  -0.000  -0.000   0.000   0.000  -0.000   0.000  -0.000   0.000   0.000  -0.000   0.000
 -0.000   0.000   0.000   0.000  -0.000  -0.000  -0.000   0.000  -0.000   0.000   0.000   0.000   0.000   0.000  -0.000   0.000
  0.000   0.000   0.000  -0.000  -0.000   0.000   0.000   0.000   0.000  -0.000  -0.000  -0.000   0.000  -0.000  -0.000   0.000
 -0.000  -0.000  -0.000   0.000   0.000  -0.000   0.000  -0.000   0.000  -0.000   0.000  -0.000  -0.000  -0.000   0.000  -0.000
 -0.000   0.000   0.000   0.000   0.000   0.000   0.000   0.000   0.000  -0.000   0.000   0.000  -0.000  -0.000   0.000   0.000
  0.000  -0.000  -0.000   0.000  -0.000  -0.000  -0.000   0.000  -0.000  -0.000   0.000  -0.000  -0.000  -0.000   0.000  -0.000


------------------------ aborting loop because EDIFF is reached ----------------------------------------


 


 total charge     
 
# of ion       s       p       d       tot
------------------------------------------
    1        0.814   1.179   9.881  11.873
    2        1.197   1.637   0.022   2.856
--------------------------------------------------
tot          2.012   2.815   9.902  14.730
 


 magnetization (x)
 
# of ion       s       p       d       tot
------------------------------------------
    1        0.002  -0.002   0.000  -0.000
    2       -0.001   0.003  -0.000   0.002
--------------------------------------------------
tot          0.001   0.001   0.000   0.002
 


 magnetization (y)
 
# of ion       s       p       d       tot
------------------------------------------
    1        0.004  -0.003   0.000   0.001
    2       -0.002   0.006  -0.000   0.004
--------------------------------------------------
tot          0.002   0.003   0.000   0.005
 


 magnetization (z)
 
# of ion       s       p       d       tot
------------------------------------------
    1       -0.000   0.000  -0.000   0.000
    2        0.000   0.000   0.000   0.000
--------------------------------------------------
tot         -0.000   0.000  -0.000   0.000
 
    FORLOC:  cpu time    0.0007: real time    0.0007
    FORNL :  cpu time    0.0132: real time    0.0133
    STRESS:  cpu time    0.0583: real time    0.0588
    FORCOR:  cpu time    0.0189: real time    0.0191
    OFIELD:  cpu time    0.0003: real time    0.0003

  FORCE on cell =-STRESS in cart. coord.  units (eV):
  Direction    XX          YY          ZZ          XY          YZ          ZX
  --------------------------------------------------------------------------------------
  Alpha Z    38.22227    38.22227    38.22227
  Ewald    -393.64871  -393.64871  -393.64871    -0.00000    -0.00000     0.00000
  Hartree   190.78747   190.78747   190.78747     0.00000     0.00000     0.00000
  E(xc)     -85.28846   -85.28846   -85.28846     0.00001     0.00001     0.00001
  Local    -134.49084  -134.49084  -134.49084     0.00014     0.00014     0.00014
  n-local    77.00528    77.62585    73.89677     1.57724    -0.48767     0.17849
  augment   158.53428   158.53428   158.53428    -0.00009    -0.00009    -0.00009
  Kinetic   150.51843   150.13505   145.69526     3.51457    -0.89184     0.52832
  Fock        0.00000     0.00000     0.00000     0.00000     0.00000     0.00000
  -------------------------------------------------------------------------------------
  Total      -0.92511    -0.92511    -0.92511     0.00000     0.00000     0.00000
  in kB     -26.66174   -26.66174   -26.66174     0.00000     0.00000     0.00000
  external pressure =      -26.66 kB  Pullay stress =        0.00 kB


 VOLUME and BASIS-vectors are now :
 -----------------------------------------------------------------------------
  energy-cutoff  :      400.00
  volume of cell :       55.59
      direct lattice vectors                 reciprocal lattice vectors
     0.000000000  3.029200000  3.029200000    -0.165060082  0.165060082  0.165060082
     3.029200000  0.000000000  3.029200000     0.165060082 -0.165060082  0.165060082
     3.029200000  3.029200000  0.000000000     0.165060082  0.165060082 -0.165060082

  length of vectors
     4.283935723  4.283935723  4.283935723     0.285892448  0.285892448  0.285892448


 FORCES acting on ions:
    Electron-Ion                     Ewald-Force                    Non-Local-Force
 -----------------------------------------------------------------------------------------------
   -.460E-06 -.460E-06 -.460E-06   -.172E-13 -.156E-13 -.147E-13   0.555E-16 0.694E-16 0.146E-15
   0.539E-07 0.539E-07 0.539E-07   0.168E-13 0.159E-13 0.132E-13   0.555E-16 0.625E-16 0.625E-16
 -----------------------------------------------------------------------------------------------
   -.275E-06 -.275E-06 -.275E-06   -.333E-15 0.285E-15 -.153E-14   0.111E-15 0.132E-15 0.208E-15
 
 
 POSITION                                       TOTAL-FORCE (eV/Angst)
 -----------------------------------------------------------------------------------
      0.00000      0.00000      0.00000         0.000000      0.000000      0.000000
      4.54380      4.54380      4.54380        -0.000000     -0.000000     -0.000000
 -----------------------------------------------------------------------------------
    total drift:                               -0.000000     -0.000000     -0.000000


--------------------------------------------------------------------------------------------------------



  FREE ENERGIE OF THE ION-ELECTRON SYSTEM (eV)
  ---------------------------------------------------
  free  energy   TOTEN  =       -11.56523198 eV

  energy  without entropy=      -11.56524722  energy(sigma->0) =      -11.56523706
 


--------------------------------------------------------------------------------------------------------


    POTLOK:  cpu time    0.0283: real time    0.0285


--------------------------------------------------------------------------------------------------------


 writing wavefunctions
     LOOP+:  cpu time    2.3419: real time    2.9151
    4ORBIT:  cpu time    0.0000: real time    0.0000

 Spin-Orbit-Coupling matrix elements

 Ion:    1  E_soc:     -0.0749360
 l=   1
     0.0000000    -0.0060095    -0.0060095
    -0.0060095     0.0000000    -0.0060095
    -0.0060095    -0.0060095     0.0000000
 l=   2
     0.0000000    -0.0013190     0.0000000    -0.0013190    -0.0051608
    -0.0013190     0.0000000    -0.0038706    -0.0013190    -0.0012902
     0.0000000    -0.0038706     0.0000000    -0.0038706     0.0000000
    -0.0013190    -0.0013190    -0.0038706     0.0000000    -0.0012902
    -0.0051608    -0.0012902     0.0000000    -0.0012902     0.0000000
 l=   3
     0.0000000     0.0000000     0.0000000     0.0000000     0.0000000     0.0000000     0.0000000
     0.0000000     0.0000000     0.0000000     0.0000000     0.0000000     0.0000000     0.0000000
     0.0000000     0.0000000     0.0000000     0.0000000     0.0000000     0.0000000     0.0000000
     0.0000000     0.0000000     0.0000000     0.0000000     0.0000000     0.0000000     0.0000000
     0.0000000     0.0000000     0.0000000     0.0000000     0.0000000     0.0000000     0.0000000
     0.0000000     0.0000000     0.0000000     0.0000000     0.0000000     0.0000000     0.0000000
     0.0000000     0.0000000     0.0000000     0.0000000     0.0000000     0.0000000     0.0000000

 Ion:    2  E_soc:     -0.0242694
 l=   1
     0.0000000    -0.0040425    -0.0040425
    -0.0040425     0.0000000    -0.0040425
    -0.0040425    -0.0040425     0.0000000
 l=   2
     0.0000000    -0.0000013     0.0000000    -0.0000013    -0.0000011
    -0.0000013     0.0000000    -0.0000008    -0.0000013    -0.0000003
     0.0000000    -0.0000008     0.0000000    -0.0000008     0.0000000
    -0.0000013    -0.0000013    -0.0000008     0.0000000    -0.0000003
    -0.0000011    -0.0000003     0.0000000    -0.0000003     0.0000000
 l=   3
     0.0000000     0.0000000     0.0000000     0.0000000     0.0000000     0.0000000     0.0000000
     0.0000000     0.0000000     0.0000000     0.0000000     0.0000000     0.0000000     0.0000000
     0.0000000     0.0000000     0.0000000     0.0000000     0.0000000     0.0000000     0.0000000
     0.0000000     0.0000000     0.0000000     0.0000000     0.0000000     0.0000000     0.0000000
     0.0000000     0.0000000     0.0000000     0.0000000     0.0000000     0.0000000     0.0000000
     0.0000000     0.0000000     0.0000000     0.0000000     0.0000000     0.0000000     0.0000000
     0.0000000     0.0000000     0.0000000     0.0000000     0.0000000     0.0000000     0.0000000
 


 total charge     
 
# of ion       s       p       d       tot
------------------------------------------
    1        0.814   1.179   9.881  11.873
    2        1.197   1.637   0.022   2.856
--------------------------------------------------
tot          2.012   2.815   9.902  14.730
 


 magnetization (x)
 
# of ion       s       p       d       tot
------------------------------------------
    1        0.002  -0.002   0.000  -0.000
    2       -0.001   0.003  -0.000   0.002
--------------------------------------------------
tot          0.001   0.001   0.000   0.002
 


 magnetization (y)
 
# of ion       s       p       d       tot
------------------------------------------
    1        0.004  -0.003   0.000   0.001
    2       -0.002   0.006  -0.000   0.004
--------------------------------------------------
tot          0.002   0.003   0.000   0.005
 


 magnetization (z)
 
# of ion       s       p       d       tot
------------------------------------------
    1       -0.000   0.000  -0.000   0.000
    2        0.000   0.000   0.000   0.000
--------------------------------------------------
tot         -0.000   0.000  -0.000   0.000
 

 total amount of memory used by VASP MPI-rank0    45585. kBytes
=======================================================================

   base      :      30000. kBytes
   nonl-proj :       3069. kBytes
   fftplans  :       1050. kBytes
   grid      :       3907. kBytes
   one-center:         62. kBytes
   wavefun   :       7497. kBytes
 
  
  
 General timing and accounting informations for this job:
 ========================================================
  
                  Total CPU time used (sec):        4.125
                            User time (sec):        3.336
                          System time (sec):        0.790
                         Elapsed time (sec):        6.353
  
                   Maximum memory used (kb):      184820.
                   Average memory used (kb):           0.
  
                          Minor page faults:        24798
                          Major page faults:            0
                 Voluntary context switches:         3726
