PROCAR lm decomposed
# of k-points:   30         # of bands:   21         # of ions:    2

 k-point     1 :    0.00000000 0.00000000 0.00000000     weight = 0.00291545

band     1 # energy  -10.26752618 # occ.  1.00000000
 
ion      s     py     pz     px    dxy    dyz    dz2    dxz  x2-y2    tot
    1  0.000  0.000  0.000  0.000  0.215  0.215  0.164  0.215  0.164  0.973
    2  0.000  0.001  0.001  0.001  0.000  0.000  0.000  0.000  0.000  0.004
tot    0.000  0.001  0.001  0.001  0.215  0.215  0.164  0.215  0.164  0.976
    1 -0.000  0.000 -0.000 -0.000 -0.197 -0.064 -0.111  0.056  0.150 -0.167
    2 -0.000  0.000 -0.001 -0.000 -0.000 -0.000 -0.000  0.000  0.000 -0.001
tot   -0.000  0.000 -0.001 -0.000 -0.197 -0.064 -0.111  0.056  0.150 -0.168
    1 -0.000  0.000  0.000  0.000  0.064  0.056  0.088  0.198 -0.049  0.357
    2 -0.000  0.001  0.000  0.000  0.000  0.000  0.000  0.000 -0.000  0.002
tot   -0.000  0.001  0.000  0.000  0.064  0.056  0.088  0.198 -0.049  0.359
    1 -0.000  0.000 -0.000 -0.000 -0.056 -0.197  0.082  0.064 -0.043 -0.151
    2 -0.000  0.000 -0.000 -0.001 -0.000 -0.000  0.000  0.000 -0.000 -0.001
tot   -0.000  0.000 -0.000 -0.001 -0.056 -0.197  0.082  0.064 -0.043 -0.152
 
band     2 # energy  -10.26752615 # occ.  1.00000000
 
ion      s     py     pz     px    dxy    dyz    dz2    dxz  x2-y2    tot
    1  0.000  0.000  0.000  0.000  0.215  0.215  0.164  0.215  0.164  0.973
    2  0.000  0.001  0.001  0.001  0.000  0.000  0.000  0.000  0.000  0.004
tot    0.000  0.001  0.001  0.001  0.215  0.215  0.164  0.215  0.164  0.976
    1 -0.000 -0.000  0.000  0.000  0.197  0.065  0.111 -0.056 -0.150  0.167
    2 -0.000 -0.000  0.001  0.000  0.000  0.000  0.000 -0.000 -0.000  0.001
tot   -0.000 -0.000  0.001  0.000  0.198  0.065  0.111 -0.056 -0.150  0.168
    1 -0.000 -0.000 -0.000 -0.000 -0.064 -0.057 -0.088 -0.197  0.049 -0.357
    2  0.000 -0.001 -0.000 -0.000 -0.000 -0.000 -0.000 -0.000  0.000 -0.002
tot   -0.000 -0.001 -0.000 -0.000 -0.064 -0.057 -0.088 -0.197  0.049 -0.359
    1  0.000 -0.000  0.000  0.000  0.056  0.197 -0.082 -0.064  0.043  0.150
    2  0.000 -0.000  0.000  0.001  0.000  0.000 -0.000 -0.000  0.000  0.001
tot    0.000 -0.000  0.000  0.001  0.056  0.197 -0.082 -0.064  0.043  0.151
 
band     3 # energy  -10.26751859 # occ.  1.00000000
 
ion      s     py     pz     px    dxy    dyz    dz2    dxz  x2-y2    tot
    1  0.000  0.000  0.000  0.000  0.215  0.215  0.164  0.215  0.164  0.973
    2  0.000  0.001  0.001  0.001  0.000  0.000  0.000  0.000  0.000  0.004
tot    0.000  0.001  0.001  0.001  0.215  0.215  0.164  0.215  0.164  0.976
    1 -0.000 -0.000  0.000 -0.000  0.034 -0.076  0.071 -0.199 -0.026 -0.195
    2 -0.000 -0.001  0.000 -0.000  0.000 -0.000  0.000 -0.000 -0.000 -0.001
tot   -0.000 -0.001  0.000 -0.000  0.034 -0.076  0.071 -0.199 -0.026 -0.197
    1  0.000 -0.000 -0.000  0.000 -0.199  0.034 -0.106 -0.075  0.151 -0.195
    2  0.000 -0.000 -0.001  0.000 -0.000  0.000 -0.000 -0.000  0.000 -0.001
tot    0.000 -0.000 -0.001  0.000 -0.199  0.034 -0.106 -0.075  0.151 -0.196
    1  0.000  0.000 -0.000 -0.000 -0.075 -0.198  0.103  0.034 -0.057 -0.194
    2  0.000  0.000 -0.000 -0.001 -0.000 -0.000  0.000  0.000 -0.000 -0.001
tot    0.000  0.000 -0.000 -0.001 -0.075 -0.199  0.103  0.034 -0.057 -0.196
 
band     4 # energy  -10.26751859 # occ.  1.00000000
 
ion      s     py     pz     px    dxy    dyz    dz2    dxz  x2-y2    tot
    1  0.000  0.000  0.000  0.000  0.215  0.215  0.164  0.215  0.164  0.973
    2  0.000  0.001  0.001  0.001  0.000  0.000  0.000  0.000  0.000  0.004
tot    0.000  0.001  0.001  0.001  0.215  0.215  0.164  0.215  0.164  0.976
    1  0.000  0.000 -0.000  0.000 -0.034  0.075 -0.071  0.199  0.026  0.195
    2 -0.000  0.001 -0.000  0.000 -0.000  0.000 -0.000  0.000  0.000  0.001
tot    0.000  0.001 -0.000  0.000 -0.034  0.075 -0.071  0.199  0.026  0.196
    1 -0.000  0.000  0.000 -0.000  0.199 -0.034  0.106  0.075 -0.151  0.195
    2 -0.000  0.000  0.001 -0.000  0.000 -0.000  0.000  0.000 -0.000  0.001
tot   -0.000  0.000  0.001 -0.000  0.199 -0.034  0.106  0.075 -0.151  0.196
    1 -0.000 -0.000  0.000  0.000  0.075  0.198 -0.103 -0.034  0.057  0.195
    2 -0.000 -0.000  0.000  0.001  0.000  0.000 -0.000 -0.000  0.000  0.001
tot   -0.000 -0.000  0.000  0.001  0.075  0.199 -0.103 -0.034  0.057  0.196
 
band     5 # energy   -9.47671775 # occ.  1.00000000
 
ion      s     py     pz     px    dxy    dyz    dz2    dxz  x2-y2    tot
    1  0.000  0.000  0.000  0.000  0.322  0.322  0.000  0.322  0.000  0.967
    2  0.000  0.002  0.002  0.002  0.000  0.000  0.000  0.000  0.000  0.007
tot    0.000  0.002  0.002  0.002  0.322  0.322  0.000  0.322  0.000  0.974
    1 -0.000  0.000  0.000 -0.000  0.118 -0.118 -0.000  0.118  0.000  0.118
    2 -0.000  0.001  0.001 -0.001  0.000 -0.000 -0.000  0.000  0.000  0.001
tot   -0.000  0.001  0.001 -0.001  0.118 -0.118 -0.000  0.118  0.000  0.119
    1 -0.000 -0.000  0.000  0.000  0.136  0.136 -0.000 -0.136  0.000  0.136
    2 -0.000 -0.001  0.001  0.001  0.000  0.000 -0.000 -0.000  0.000  0.001
tot   -0.000 -0.001  0.001  0.001  0.136  0.136 -0.000 -0.136  0.000  0.137
    1  0.000 -0.000  0.000 -0.000  0.267 -0.267  0.000 -0.267 -0.000 -0.267
    2 -0.000 -0.002  0.002 -0.002  0.000 -0.000  0.000 -0.000 -0.000 -0.002
tot    0.000 -0.002  0.002 -0.002  0.267 -0.267  0.000 -0.267 -0.000 -0.269
 
band     6 # energy   -9.47671774 # occ.  1.00000000
 
ion      s     py     pz     px    dxy    dyz    dz2    dxz  x2-y2    tot
    1  0.000  0.000  0.000  0.000  0.322  0.322  0.000  0.322  0.000  0.967
    2  0.000  0.002  0.002  0.002  0.000  0.000  0.000  0.000  0.000  0.007
tot    0.000  0.002  0.002  0.002  0.322  0.322  0.000  0.322  0.000  0.974
    1  0.000 -0.000 -0.000  0.000 -0.118  0.118  0.000 -0.118 -0.000 -0.118
    2  0.000 -0.001 -0.001  0.001 -0.000  0.000  0.000 -0.000 -0.000 -0.001
tot    0.000 -0.001 -0.001  0.001 -0.118  0.118  0.000 -0.118 -0.000 -0.119
    1  0.000  0.000 -0.000 -0.000 -0.136 -0.136  0.000  0.136 -0.000 -0.136
    2  0.000  0.001 -0.001 -0.001 -0.000 -0.000  0.000  0.000 -0.000 -0.001
tot    0.000  0.001 -0.001 -0.001 -0.136 -0.136  0.000  0.136 -0.000 -0.137
    1 -0.000  0.000 -0.000  0.000 -0.267  0.267 -0.000  0.267  0.000  0.267
    2 -0.000  0.002 -0.002  0.002 -0.000  0.000 -0.000  0.000  0.000  0.002
tot   -0.000  0.002 -0.002  0.002 -0.267  0.267 -0.000  0.267  0.000  0.269
 
band     7 # energy   -9.39072468 # occ.  1.00000000
 
ion      s     py     pz     px    dxy    dyz    dz2    dxz  x2-y2    tot
    1  0.000  0.000  0.000  0.000  0.108  0.108  0.327  0.108  0.326  0.976
    2  0.000  0.001  0.001  0.001  0.000  0.000  0.000  0.000  0.000  0.003
tot    0.000  0.001  0.001  0.001  0.108  0.108  0.327  0.108  0.326  0.978
    1 -0.000 -0.000 -0.000  0.000 -0.014  0.074  0.292 -0.077  0.042  0.317
    2 -0.000 -0.001 -0.000  0.000 -0.000  0.000  0.000 -0.000  0.000  0.000
tot   -0.000 -0.001 -0.000  0.001 -0.014  0.074  0.292 -0.077  0.042  0.317
    1 -0.000  0.000 -0.000 -0.000 -0.077 -0.014  0.100  0.074  0.233  0.317
    2  0.000  0.000 -0.001 -0.000 -0.000 -0.000  0.000  0.000  0.000  0.000
tot   -0.000  0.001 -0.001 -0.000 -0.077 -0.014  0.100  0.074  0.233  0.317
    1 -0.000 -0.000  0.000 -0.000  0.074 -0.077  0.108 -0.014  0.224  0.316
    2 -0.000 -0.000  0.000 -0.001  0.000 -0.000  0.000 -0.000  0.000  0.000
tot   -0.000 -0.000  0.001 -0.001  0.074 -0.077  0.108 -0.014  0.224  0.316
 
band     8 # energy   -9.39072467 # occ.  1.00000000
 
ion      s     py     pz     px    dxy    dyz    dz2    dxz  x2-y2    tot
    1  0.000  0.000  0.000  0.000  0.107  0.108  0.327  0.108  0.326  0.976
    2  0.000  0.001  0.001  0.001  0.000  0.000  0.000  0.000  0.000  0.003
tot    0.000  0.001  0.001  0.001  0.107  0.108  0.327  0.108  0.326  0.978
    1 -0.000  0.000  0.000 -0.000  0.014 -0.074 -0.292  0.077 -0.041 -0.317
    2 -0.000  0.001  0.000 -0.000  0.000 -0.000 -0.000  0.000 -0.000 -0.000
tot   -0.000  0.001  0.000 -0.001  0.014 -0.074 -0.292  0.077 -0.041 -0.317
    1 -0.000 -0.000  0.000  0.000  0.077  0.014 -0.101 -0.074 -0.233 -0.318
    2  0.000 -0.000  0.001  0.000  0.000  0.000 -0.000 -0.000 -0.000 -0.000
tot   -0.000 -0.001  0.001  0.000  0.077  0.014 -0.101 -0.074 -0.233 -0.318
    1 -0.000  0.000 -0.000  0.000 -0.074  0.077 -0.108  0.013 -0.223 -0.315
    2 -0.000  0.000 -0.000  0.001 -0.000  0.000 -0.000  0.000 -0.000 -0.000
tot   -0.000  0.000 -0.001  0.001 -0.074  0.077 -0.108  0.013 -0.223 -0.315
 
band     9 # energy   -9.39071998 # occ.  1.00000000
 
ion      s     py     pz     px    dxy    dyz    dz2    dxz  x2-y2    tot
    1  0.000  0.000  0.000  0.000  0.108  0.108  0.326  0.108  0.327  0.976
    2  0.000  0.001  0.001  0.001  0.000  0.000  0.000  0.000  0.000  0.003
tot    0.000  0.001  0.001  0.001  0.108  0.108  0.326  0.108  0.327  0.978
    1 -0.000  0.000  0.000 -0.000  0.030 -0.096 -0.242  0.039 -0.090 -0.359
    2 -0.000  0.000  0.000 -0.001  0.000 -0.000 -0.000  0.000 -0.000 -0.000
tot   -0.000  0.000  0.000 -0.001  0.030 -0.096 -0.242  0.039 -0.090 -0.360
    1  0.000 -0.000  0.000  0.000  0.096  0.039 -0.042 -0.030 -0.291 -0.228
    2  0.000 -0.000  0.001  0.000  0.000  0.000 -0.000 -0.000 -0.000  0.001
tot    0.000 -0.000  0.001  0.000  0.096  0.039 -0.042 -0.030 -0.291 -0.227
    1  0.000  0.000 -0.000  0.000 -0.039  0.030 -0.214  0.096 -0.119 -0.246
    2  0.000  0.001 -0.000  0.000 -0.000  0.000 -0.000  0.000 -0.000  0.000
tot    0.000  0.001 -0.000  0.000 -0.039  0.030 -0.214  0.096 -0.119 -0.246
 
band    10 # energy   -9.39071996 # occ.  1.00000000
 
ion      s     py     pz     px    dxy    dyz    dz2    dxz  x2-y2    tot
    1  0.000  0.000  0.000  0.000  0.108  0.108  0.326  0.107  0.327  0.976
    2  0.000  0.001  0.001  0.001  0.000  0.000  0.000  0.000  0.000  0.003
tot    0.000  0.001  0.001  0.001  0.108  0.108  0.326  0.107  0.327  0.978
    1 -0.000 -0.000 -0.000  0.000 -0.030  0.096  0.242 -0.039  0.090  0.359
    2  0.000 -0.000 -0.000  0.001 -0.000  0.000  0.000 -0.000  0.000  0.000
tot   -0.000 -0.000 -0.000  0.001 -0.030  0.096  0.242 -0.039  0.090  0.360
    1 -0.000  0.000 -0.000 -0.000 -0.096 -0.039  0.043  0.030  0.292  0.229
    2 -0.000  0.000 -0.001 -0.000 -0.000 -0.000  0.000  0.000  0.000 -0.001
tot   -0.000  0.000 -0.001 -0.000 -0.096 -0.040  0.043  0.030  0.292  0.229
    1 -0.000 -0.000  0.000 -0.000  0.039 -0.029  0.213 -0.095  0.118  0.245
    2 -0.000 -0.001  0.000 -0.000  0.000 -0.000  0.000 -0.000  0.000 -0.000
tot   -0.000 -0.001  0.000 -0.000  0.039 -0.029  0.213 -0.095  0.118  0.244
 
band    11 # energy   -7.31721287 # occ.  1.00000000
 
ion      s     py     pz     px    dxy    dyz    dz2    dxz  x2-y2    tot
    1  0.156  0.000  0.000  0.000  0.000  0.000  0.000  0.000  0.000  0.156
    2  0.450  0.000  0.000  0.000  0.000  0.000  0.000  0.000  0.000  0.450
tot    0.607  0.000  0.000  0.000  0.000  0.000  0.000  0.000  0.000  0.607
    1 -0.018  0.000  0.000  0.000  0.000  0.000  0.000  0.000  0.000 -0.018
    2 -0.050  0.000 -0.000  0.000  0.000 -0.000 -0.000  0.000 -0.000 -0.050
tot   -0.068  0.000 -0.000  0.000  0.000  0.000  0.000  0.000  0.000 -0.068
    1 -0.091  0.000 -0.000 -0.000 -0.000 -0.000 -0.000 -0.000  0.000 -0.091
    2 -0.263  0.000 -0.000 -0.000 -0.000 -0.000 -0.000 -0.000 -0.000 -0.263
tot   -0.354  0.000 -0.000 -0.000 -0.000 -0.000 -0.000 -0.000  0.000 -0.354
    1 -0.126 -0.000 -0.000  0.000 -0.000 -0.000  0.000 -0.000  0.000 -0.126
    2 -0.362 -0.000  0.000 -0.000  0.000 -0.000  0.000 -0.000  0.000 -0.362
tot   -0.488 -0.000 -0.000 -0.000 -0.000 -0.000  0.000 -0.000  0.000 -0.488
 
band    12 # energy   -7.31721287 # occ.  1.00000000
 
ion      s     py     pz     px    dxy    dyz    dz2    dxz  x2-y2    tot
    1  0.156  0.000  0.000  0.000  0.000  0.000  0.000  0.000  0.000  0.156
    2  0.450  0.000  0.000  0.000  0.000  0.000  0.000  0.000  0.000  0.450
tot    0.607  0.000  0.000  0.000  0.000  0.000  0.000  0.000  0.000  0.607
    1  0.018  0.000 -0.000  0.000 -0.000  0.000 -0.000  0.000  0.000  0.018
    2  0.050  0.000 -0.000  0.000  0.000 -0.000  0.000  0.000  0.000  0.050
tot    0.068  0.000 -0.000  0.000 -0.000  0.000 -0.000  0.000  0.000  0.068
    1  0.091  0.000  0.000  0.000  0.000  0.000 -0.000  0.000  0.000  0.091
    2  0.263  0.000  0.000  0.000  0.000  0.000  0.000  0.000  0.000  0.263
tot    0.354  0.000  0.000  0.000  0.000  0.000 -0.000  0.000  0.000  0.354
    1  0.126  0.000  0.000 -0.000  0.000  0.000 -0.000  0.000  0.000  0.126
    2  0.362 -0.000  0.000 -0.000  0.000  0.000 -0.000  0.000  0.000  0.362
tot    0.488  0.000  0.000 -0.000  0.000  0.000 -0.000  0.000  0.000  0.488
 
band    13 # energy    3.80989571 # occ.  1.00000000
 
ion      s     py     pz     px    dxy    dyz    dz2    dxz  x2-y2    tot
    1  0.000  0.046  0.046  0.046  0.019  0.019  0.000  0.019  0.000  0.195
    2  0.000  0.151  0.151  0.151  0.001  0.001  0.000  0.001  0.000  0.456
tot    0.000  0.198  0.197  0.197  0.020  0.020  0.000  0.020  0.000  0.650
    1  0.000 -0.007 -0.007  0.007 -0.003  0.003  0.000 -0.003 -0.000 -0.010
    2  0.000 -0.022 -0.022  0.021 -0.000  0.000  0.000 -0.000  0.000 -0.023
tot    0.000 -0.029 -0.029  0.028 -0.003  0.003  0.000 -0.003 -0.000 -0.032
    1  0.000 -0.036  0.036  0.036  0.015  0.015  0.000 -0.015 -0.000  0.051
    2  0.000 -0.119  0.119  0.118  0.001  0.001  0.000 -0.001 -0.000  0.119
tot    0.000 -0.155  0.155  0.155  0.015  0.015  0.000 -0.015 -0.000  0.170
    1 -0.000  0.028 -0.028  0.028 -0.011  0.011  0.000  0.011  0.000  0.039
    2 -0.000  0.091 -0.091  0.091 -0.001  0.001  0.000  0.001 -0.000  0.091
tot   -0.000  0.119 -0.118  0.118 -0.012  0.012  0.000  0.012 -0.000  0.130
 
band    14 # energy    3.80992966 # occ.  1.00000000
 
ion      s     py     pz     px    dxy    dyz    dz2    dxz  x2-y2    tot
    1  0.000  0.046  0.047  0.046  0.019  0.018  0.000  0.018  0.000  0.195
    2  0.000  0.149  0.154  0.150  0.001  0.001  0.000  0.001  0.000  0.456
tot    0.000  0.195  0.201  0.196  0.020  0.019  0.000  0.019  0.000  0.650
    1 -0.000  0.007  0.006 -0.007  0.003 -0.003  0.000  0.003  0.000  0.009
    2 -0.000  0.023  0.020 -0.022  0.000 -0.000  0.000  0.000  0.000  0.021
tot   -0.000  0.029  0.027 -0.029  0.003 -0.003  0.000  0.003  0.000  0.030
    1 -0.000  0.036 -0.037 -0.036 -0.015 -0.015  0.000  0.014  0.000 -0.053
    2 -0.000  0.117 -0.121 -0.118 -0.001 -0.001  0.000  0.001  0.000 -0.123
tot   -0.000  0.152 -0.158 -0.155 -0.016 -0.015  0.000  0.015  0.000 -0.176
    1 -0.000 -0.028  0.029 -0.027  0.011 -0.011 -0.000 -0.011  0.000 -0.037
    2 -0.000 -0.090  0.093 -0.089  0.001 -0.001 -0.000 -0.001  0.000 -0.086
tot   -0.000 -0.117  0.122 -0.116  0.012 -0.012 -0.000 -0.012  0.000 -0.123
 
band    15 # energy    4.13034294 # occ.  1.00270957
 
ion      s     py     pz     px    dxy    dyz    dz2    dxz  x2-y2    tot
    1  0.000  0.036  0.015  0.080  0.007  0.035  0.000  0.016  0.000  0.188
    2  0.000  0.124  0.052  0.279  0.000  0.002  0.000  0.001  0.000  0.458
tot    0.000  0.160  0.066  0.359  0.007  0.037  0.000  0.016  0.000  0.645
    1 -0.000 -0.025  0.009  0.016  0.004  0.007  0.000 -0.011 -0.000  0.000
    2 -0.000 -0.087  0.030  0.057  0.000  0.000  0.000 -0.001 -0.000  0.000
tot   -0.000 -0.112  0.039  0.073  0.004  0.008  0.000 -0.011 -0.000  0.000
    1 -0.000  0.011 -0.001 -0.037 -0.000 -0.016  0.000  0.005  0.000 -0.039
    2 -0.000  0.037 -0.004 -0.129 -0.000 -0.001  0.000  0.000  0.000 -0.096
tot   -0.000  0.048 -0.005 -0.166 -0.000 -0.017  0.000  0.005  0.000 -0.135
    1 -0.000 -0.023  0.012 -0.069  0.005 -0.030  0.000 -0.010  0.000 -0.115
    2 -0.000 -0.081  0.042 -0.241  0.000 -0.001  0.000 -0.000  0.000 -0.282
tot   -0.000 -0.104  0.054 -0.310  0.005 -0.032  0.000 -0.011  0.000 -0.397
 
band    16 # energy    4.13034318 # occ.  1.00273626
 
ion      s     py     pz     px    dxy    dyz    dz2    dxz  x2-y2    tot
    1  0.000  0.016  0.071  0.044  0.031  0.019  0.000  0.007  0.000  0.188
    2  0.000  0.055  0.247  0.153  0.001  0.001  0.000  0.000  0.000  0.458
tot    0.000  0.071  0.318  0.197  0.033  0.020  0.000  0.007  0.000  0.645
    1 -0.000  0.004  0.033 -0.002  0.014 -0.001  0.000  0.002 -0.000  0.050
    2 -0.000  0.012  0.114 -0.006  0.001 -0.000  0.000  0.000 -0.000  0.121
tot   -0.000  0.016  0.147 -0.008  0.015 -0.001  0.000  0.002 -0.000  0.170
    1 -0.000  0.011  0.004  0.012  0.002  0.005  0.000  0.005 -0.000  0.039
    2 -0.000  0.038  0.013  0.043  0.000  0.000  0.000  0.000 -0.000  0.095
tot   -0.000  0.049  0.017  0.055  0.002  0.006  0.000  0.005 -0.000  0.134
    1 -0.000  0.011 -0.063  0.042 -0.028  0.018 -0.000  0.005 -0.000 -0.014
    2 -0.000  0.038 -0.219  0.147 -0.001  0.001 -0.000  0.000 -0.000 -0.035
tot   -0.000  0.048 -0.282  0.188 -0.029  0.019 -0.000  0.005 -0.000 -0.050
 
band    17 # energy    4.13034369 # occ.  1.00297302
 
ion      s     py     pz     px    dxy    dyz    dz2    dxz  x2-y2    tot
    1  0.000  0.077  0.014  0.039  0.006  0.017  0.000  0.034  0.000  0.188
    2  0.000  0.270  0.048  0.137  0.000  0.001  0.000  0.002  0.000  0.458
tot    0.000  0.347  0.062  0.176  0.006  0.018  0.000  0.036  0.000  0.645
    1 -0.000  0.056  0.014 -0.022  0.006 -0.010 -0.000  0.025 -0.000  0.069
    2 -0.000  0.197  0.047 -0.076  0.000 -0.000 -0.000  0.001 -0.000  0.169
tot   -0.000  0.253  0.061 -0.097  0.006 -0.010 -0.000  0.026 -0.000  0.239
    1 -0.000 -0.043  0.002  0.016  0.001  0.007 -0.000 -0.019 -0.000 -0.035
    2 -0.000 -0.150  0.007  0.057  0.000  0.000 -0.000 -0.001 -0.000 -0.086
tot   -0.000 -0.193  0.010  0.073  0.001  0.008 -0.000 -0.020 -0.000 -0.122
    1 -0.000  0.031  0.001  0.028  0.000  0.013 -0.000  0.014  0.000  0.087
    2 -0.000  0.109  0.003  0.099  0.000  0.001 -0.000  0.001  0.000  0.212
tot   -0.000  0.140  0.003  0.128  0.000  0.013 -0.000  0.014  0.000  0.298
 
band    18 # energy    4.13052343 # occ.  1.00558804
 
ion      s     py     pz     px    dxy    dyz    dz2    dxz  x2-y2    tot
    1  0.000  0.045  0.073  0.011  0.032  0.005  0.000  0.020  0.000  0.188
    2  0.000  0.159  0.257  0.039  0.001  0.000  0.000  0.001  0.000  0.458
tot    0.001  0.204  0.330  0.050  0.034  0.005  0.000  0.021  0.000  0.646
    1 -0.000 -0.035 -0.054  0.007 -0.024  0.003  0.000 -0.015  0.000 -0.118
    2 -0.000 -0.122 -0.190  0.026 -0.001  0.000  0.000 -0.001  0.000 -0.289
tot   -0.001 -0.157 -0.244  0.033 -0.025  0.003  0.000 -0.016  0.000 -0.407
    1 -0.000  0.022 -0.004  0.008 -0.002  0.004  0.000  0.010  0.000  0.037
    2 -0.000  0.077 -0.015  0.029 -0.000  0.000  0.000  0.000  0.000  0.091
tot   -0.001  0.099 -0.019  0.037 -0.002  0.004  0.000  0.010  0.000  0.128
    1 -0.000 -0.019  0.049 -0.002  0.022 -0.001 -0.000 -0.008  0.000  0.041
    2 -0.000 -0.066  0.172 -0.006  0.001 -0.000 -0.000 -0.000  0.000  0.100
tot   -0.000 -0.085  0.221 -0.008  0.023 -0.001 -0.000 -0.009  0.000  0.141
 
band    19 # energy    4.28727941 # occ. -0.00036152
 
ion      s     py     pz     px    dxy    dyz    dz2    dxz  x2-y2    tot
    1  0.370  0.000  0.000  0.000  0.000  0.000  0.000  0.000  0.000  0.371
    2  0.316  0.000  0.000  0.000  0.000  0.000  0.000  0.000  0.000  0.317
tot    0.686  0.000  0.000  0.000  0.000  0.000  0.000  0.000  0.000  0.687
    1 -0.266 -0.000 -0.000  0.000 -0.000  0.000  0.000 -0.000  0.000 -0.266
    2 -0.227 -0.000 -0.000  0.000 -0.000  0.000  0.000 -0.000  0.000 -0.227
tot   -0.493 -0.000 -0.000  0.000 -0.000  0.000  0.000 -0.000  0.000 -0.494
    1 -0.218  0.000  0.000  0.000 -0.000  0.000  0.000  0.000  0.000 -0.218
    2 -0.186  0.000 -0.000  0.000  0.000  0.000  0.000  0.000  0.000 -0.186
tot   -0.404  0.000 -0.000  0.000 -0.000  0.000  0.000  0.000  0.000 -0.404
    1 -0.137 -0.000  0.000 -0.000  0.000 -0.000 -0.000 -0.000  0.000 -0.137
    2 -0.117 -0.000  0.000 -0.000  0.000 -0.000 -0.000 -0.000  0.000 -0.117
tot   -0.254 -0.000  0.000 -0.000  0.000 -0.000 -0.000 -0.000  0.000 -0.254
 
band    20 # energy    4.28749188 # occ. -0.01364540
 
ion      s     py     pz     px    dxy    dyz    dz2    dxz  x2-y2    tot
    1  0.371  0.000  0.000  0.000  0.000  0.000  0.000  0.000  0.000  0.371
    2  0.316  0.000  0.000  0.000  0.000  0.000  0.000  0.000  0.000  0.316
tot    0.687  0.000  0.000  0.000  0.000  0.000  0.000  0.000  0.000  0.687
    1  0.267 -0.000 -0.000  0.000 -0.000  0.000  0.000 -0.000  0.000  0.267
    2  0.227 -0.000 -0.000  0.000 -0.000  0.000  0.000 -0.000  0.000  0.227
tot    0.494 -0.000 -0.000  0.000 -0.000  0.000  0.000 -0.000  0.000  0.494
    1  0.218 -0.000  0.000  0.000  0.000  0.000 -0.000 -0.000 -0.000  0.218
    2  0.186 -0.000  0.000  0.000  0.000  0.000  0.000 -0.000 -0.000  0.186
tot    0.405 -0.000  0.000  0.000  0.000  0.000 -0.000 -0.000 -0.000  0.405
    1  0.137 -0.000  0.000 -0.000  0.000 -0.000  0.000 -0.000  0.000  0.137
    2  0.117 -0.000  0.000 -0.000  0.000 -0.000  0.000 -0.000 -0.000  0.117
tot    0.254 -0.000  0.000 -0.000  0.000 -0.000  0.000 -0.000  0.000  0.254
 
band    21 # energy    7.84610545 # occ.  0.00000000
 
ion      s     py     pz     px    dxy    dyz    dz2    dxz  x2-y2    tot
    1  0.000  0.094  0.388  0.091  0.005  0.001  0.000  0.001  0.000  0.580
    2  0.000  0.005  0.022  0.005  0.037  0.009  0.000  0.009  0.000  0.087
tot    0.000  0.099  0.409  0.097  0.042  0.010  0.000  0.010  0.000  0.667
    1  0.000 -0.039  0.363  0.040  0.004  0.001  0.000 -0.001 -0.000  0.368
    2 -0.000 -0.003  0.021  0.003  0.035  0.004  0.000 -0.004 -0.000  0.055
tot    0.000 -0.042  0.384  0.043  0.039  0.004  0.000 -0.004 -0.000  0.424
    1  0.000  0.058 -0.134 -0.050 -0.001 -0.001  0.000  0.001  0.000 -0.128
    2 -0.000  0.003 -0.007 -0.003 -0.013 -0.005  0.000  0.006  0.000 -0.019
tot    0.000  0.060 -0.141 -0.053 -0.014 -0.005  0.000  0.006  0.000 -0.147
    1 -0.000  0.063 -0.022  0.065  0.000  0.001 -0.000  0.001 -0.000  0.107
    2 -0.000  0.003  0.001  0.003 -0.002  0.006 -0.000  0.006 -0.000  0.017
tot   -0.000  0.066 -0.022  0.068 -0.002  0.007 -0.000  0.007 -0.000  0.124
 

 k-point     2 :    0.14285714 0.00000000 0.00000000     weight = 0.01166181

band     1 # energy  -10.27209269 # occ.  1.00000000
 
ion      s     py     pz     px    dxy    dyz    dz2    dxz  x2-y2    tot
    1  0.000  0.000  0.000  0.000  0.217  0.215  0.160  0.217  0.160  0.969
    2  0.003  0.001  0.001  0.001  0.000  0.000  0.000  0.000  0.000  0.006
tot    0.003  0.001  0.001  0.001  0.217  0.215  0.160  0.217  0.160  0.975
    1 -0.000 -0.000  0.000  0.000  0.138  0.008  0.119 -0.159 -0.105  0.002
    2 -0.000 -0.000  0.000  0.000 -0.000  0.000  0.000  0.000 -0.000 -0.000
tot   -0.000 -0.001  0.000  0.000  0.138  0.008  0.119 -0.159 -0.105  0.002
    1  0.000  0.000  0.000  0.000  0.015  0.162 -0.007  0.148 -0.007  0.310
    2  0.002  0.001 -0.000  0.001 -0.000  0.000 -0.000  0.000 -0.000  0.004
tot    0.002  0.001 -0.000  0.001  0.015  0.162 -0.007  0.148 -0.007  0.314
    1 -0.000 -0.000 -0.000 -0.000 -0.167 -0.141  0.106  0.003 -0.120 -0.319
    2 -0.002  0.000 -0.001 -0.001 -0.000 -0.000  0.000  0.000 -0.000 -0.003
tot   -0.002  0.000 -0.001 -0.001 -0.167 -0.141  0.106  0.003 -0.120 -0.322
 
band     2 # energy  -10.27209267 # occ.  1.00000000
 
ion      s     py     pz     px    dxy    dyz    dz2    dxz  x2-y2    tot
    1  0.000  0.000  0.000  0.000  0.216  0.218  0.160  0.216  0.160  0.969
    2  0.003  0.001  0.001  0.001  0.000  0.000  0.000  0.000  0.000  0.006
tot    0.003  0.001  0.001  0.001  0.216  0.218  0.160  0.216  0.160  0.975
    1  0.000  0.000 -0.000 -0.000 -0.137 -0.008 -0.119  0.157  0.105 -0.002
    2  0.000  0.001 -0.001 -0.000 -0.000 -0.000 -0.000  0.000  0.000  0.000
tot    0.000  0.001 -0.001 -0.000 -0.137 -0.008 -0.119  0.157  0.105 -0.002
    1 -0.000 -0.000 -0.000 -0.000 -0.013 -0.164  0.008 -0.147  0.007 -0.310
    2 -0.002 -0.001 -0.000 -0.001 -0.000 -0.000  0.000 -0.000  0.000 -0.004
tot   -0.002 -0.001 -0.000 -0.001 -0.013 -0.164  0.008 -0.147  0.007 -0.314
    1  0.000 -0.000  0.000  0.000  0.166  0.143 -0.106 -0.006  0.120  0.319
    2  0.002  0.000  0.001  0.000  0.000  0.000 -0.000  0.000  0.000  0.003
tot    0.002  0.000  0.001  0.001  0.166  0.143 -0.106 -0.006  0.120  0.322
 
band     3 # energy  -10.26985645 # occ.  1.00000000
 
ion      s     py     pz     px    dxy    dyz    dz2    dxz  x2-y2    tot
    1  0.000  0.000  0.000  0.000  0.213  0.213  0.167  0.213  0.167  0.972
    2  0.000  0.001  0.001  0.001  0.000  0.000  0.000  0.000  0.000  0.004
tot    0.000  0.001  0.001  0.001  0.213  0.213  0.167  0.213  0.167  0.976
    1  0.000  0.000 -0.000  0.000 -0.150 -0.000 -0.118  0.150  0.118 -0.000
    2  0.000  0.001 -0.001 -0.000 -0.000  0.000 -0.000  0.000  0.000 -0.000
tot    0.000  0.001 -0.001  0.000 -0.150 -0.000 -0.118  0.150  0.118 -0.000
    1 -0.000 -0.000 -0.000  0.000 -0.151  0.150 -0.118 -0.000  0.118 -0.001
    2  0.000 -0.000 -0.001  0.001 -0.000  0.000 -0.000 -0.000  0.000 -0.000
tot    0.000 -0.000 -0.001  0.001 -0.151  0.150 -0.118 -0.000  0.118 -0.001
    1 -0.000  0.000  0.000 -0.000  0.000 -0.150 -0.000  0.151  0.000  0.001
    2 -0.000  0.001  0.000 -0.001  0.000 -0.000 -0.000  0.000  0.000  0.000
tot   -0.000  0.001  0.000 -0.001  0.000 -0.150 -0.000  0.151  0.000  0.001
 
band     4 # energy  -10.26189999 # occ.  1.00000000
 
ion      s     py     pz     px    dxy    dyz    dz2    dxz  x2-y2    tot
    1  0.000  0.000  0.000  0.000  0.214  0.214  0.166  0.214  0.166  0.973
    2  0.000  0.001  0.001  0.001  0.000  0.000  0.000  0.000  0.000  0.003
tot    0.000  0.001  0.001  0.001  0.214  0.214  0.166  0.214  0.166  0.977
    1  0.000 -0.000  0.000 -0.000  0.151  0.000  0.117 -0.151 -0.117  0.000
    2  0.000 -0.001  0.001 -0.000  0.000  0.000  0.000 -0.000 -0.000 -0.000
tot    0.000 -0.001  0.001 -0.000  0.151  0.000  0.117 -0.151 -0.117  0.000
    1  0.000  0.000  0.000 -0.000  0.151 -0.151  0.117  0.000 -0.117  0.000
    2 -0.000  0.000  0.001 -0.001  0.000 -0.000  0.000  0.000 -0.000  0.000
tot    0.000  0.000  0.001 -0.001  0.151 -0.151  0.117  0.000 -0.117  0.000
    1 -0.000 -0.000 -0.000  0.000 -0.000  0.151  0.000 -0.151 -0.000 -0.000
    2  0.000 -0.001 -0.000  0.001 -0.000  0.000  0.000 -0.000 -0.000 -0.000
tot    0.000 -0.001 -0.000  0.001 -0.000  0.151  0.000 -0.151 -0.000 -0.000
 
band     5 # energy   -9.48140159 # occ.  1.00000000
 
ion      s     py     pz     px    dxy    dyz    dz2    dxz  x2-y2    tot
    1  0.000  0.000  0.000  0.000  0.329  0.295  0.004  0.329  0.004  0.962
    2  0.004  0.002  0.002  0.002  0.000  0.000  0.000  0.000  0.000  0.010
tot    0.004  0.002  0.002  0.003  0.329  0.295  0.004  0.329  0.004  0.972
    1 -0.000  0.000 -0.000 -0.000 -0.009  0.001 -0.003  0.007  0.003 -0.001
    2 -0.000 -0.000  0.000  0.000  0.000  0.000 -0.000 -0.000  0.000 -0.000
tot   -0.000 -0.000  0.000  0.000 -0.009  0.001 -0.003  0.007  0.003 -0.001
    1 -0.000  0.000 -0.000 -0.000 -0.251 -0.212 -0.000  0.218  0.000 -0.245
    2 -0.003  0.001 -0.001 -0.002 -0.000 -0.000 -0.000  0.000  0.000 -0.004
tot   -0.003  0.001 -0.001 -0.002 -0.251 -0.212 -0.000  0.218  0.000 -0.249
    1  0.000  0.000 -0.000  0.000 -0.213  0.206 -0.003  0.246  0.003  0.240
    2  0.003  0.001 -0.001  0.002 -0.000  0.000 -0.000  0.000  0.000  0.004
tot    0.003  0.001 -0.001  0.002 -0.213  0.206 -0.003  0.246  0.003  0.244
 
band     6 # energy   -9.48140115 # occ.  1.00000000
 
ion      s     py     pz     px    dxy    dyz    dz2    dxz  x2-y2    tot
    1  0.000  0.000  0.000  0.000  0.306  0.340  0.004  0.307  0.004  0.962
    2  0.004  0.002  0.002  0.001  0.000  0.000  0.000  0.000  0.000  0.010
tot    0.004  0.002  0.002  0.002  0.306  0.340  0.004  0.307  0.004  0.972
    1  0.000  0.000 -0.000  0.000 -0.023 -0.001  0.003  0.025 -0.003  0.001
    2  0.000 -0.000  0.001 -0.000  0.000 -0.000  0.000 -0.000 -0.000  0.000
tot    0.000 -0.000  0.000 -0.000 -0.023 -0.001  0.003  0.025 -0.003  0.001
    1  0.000 -0.000  0.000  0.000  0.219  0.244  0.000 -0.218 -0.000  0.245
    2  0.003 -0.001  0.002  0.001  0.000  0.000  0.000 -0.000 -0.000  0.004
tot    0.003 -0.001  0.002  0.001  0.219  0.244  0.000 -0.218 -0.000  0.249
    1 -0.000 -0.000  0.000 -0.000  0.213 -0.238  0.003 -0.214 -0.003 -0.240
    2 -0.003 -0.002  0.001 -0.001  0.000 -0.000  0.000 -0.000 -0.000 -0.004
tot   -0.003 -0.002  0.001 -0.001  0.213 -0.238  0.003 -0.214 -0.003 -0.244
 
band     7 # energy   -9.40037530 # occ.  1.00000000
 
ion      s     py     pz     px    dxy    dyz    dz2    dxz  x2-y2    tot
    1  0.000  0.000  0.000  0.000  0.117  0.085  0.326  0.117  0.326  0.972
    2  0.002  0.001  0.001  0.001  0.000  0.000  0.000  0.000  0.000  0.005
tot    0.002  0.001  0.001  0.001  0.117  0.086  0.326  0.117  0.326  0.977
    1 -0.000 -0.000  0.000 -0.000  0.103 -0.000  0.230 -0.104 -0.229 -0.000
    2 -0.000 -0.000  0.000 -0.000  0.000 -0.000  0.000 -0.000 -0.000 -0.000
tot   -0.000 -0.000  0.000 -0.000  0.103 -0.000  0.230 -0.104 -0.229 -0.000
    1  0.000  0.000  0.000  0.000  0.002  0.061 -0.003  0.055  0.002  0.117
    2  0.002  0.000 -0.000  0.001 -0.000  0.000 -0.000  0.000  0.000  0.002
tot    0.002  0.000 -0.000  0.001  0.002  0.061 -0.003  0.055  0.002  0.119
    1 -0.000 -0.000 -0.000 -0.000 -0.056 -0.060  0.231 -0.003 -0.232 -0.120
    2 -0.002  0.000 -0.000 -0.001 -0.000 -0.000  0.000  0.000 -0.000 -0.002
tot   -0.002  0.000 -0.000 -0.001 -0.056 -0.060  0.231 -0.003 -0.232 -0.122
 
band     8 # energy   -9.40037486 # occ.  1.00000000
 
ion      s     py     pz     px    dxy    dyz    dz2    dxz  x2-y2    tot
    1  0.000  0.000  0.000  0.000  0.096  0.128  0.326  0.096  0.326  0.972
    2  0.002  0.001  0.001  0.000  0.000  0.000  0.000  0.000  0.000  0.005
tot    0.002  0.001  0.001  0.000  0.096  0.128  0.326  0.096  0.326  0.977
    1  0.000  0.000 -0.000  0.000 -0.073  0.000 -0.230  0.074  0.229  0.000
    2  0.000  0.001 -0.001  0.000 -0.000  0.000 -0.000  0.000  0.000  0.000