<?xml version="1.0" encoding="ISO-8859-1"?>
<modeling>
 <generator>
  <i name="program" type="string">vasp </i>
  <i name="version" type="string">5.4.4.18Apr17-6-g9f103f2a35  </i>
  <i name="subversion" type="string">(build Sep 01 2023 15:53:54) complex            parallel </i>
  <i name="platform" type="string">LinuxIFC </i>
  <i name="date" type="string">2023 11 23 </i>
  <i name="time" type="string">04:14:45 </i>
 </generator>
 <incar>
  <i type="int" name="ISTART">     0</i>
  <i type="string" name="PREC">n</i>
  <i type="string" name="ALGO"> D</i>
  <i type="logical" name="LSORBIT"> T  </i>
  <v name="SAXIS">      0.00000000      0.00000000      1.00000000</v>
  <i type="int" name="ISPIN">     2</i>
  <i name="BMIX">      3.00000000</i>
  <i name="AMIN">      0.01000000</i>
  <i type="int" name="ICHARG">     2</i>
  <i name="EDIFF">      0.00001000</i>
  <i name="ENCUT">    400.00000000</i>
  <i type="int" name="NBANDS">    21</i>
  <v name="MAGMOM">      0.00000000      0.00000000      0.00000000      0.00000000      0.00000000      0.00000000</v>
  <i name="SIGMA">      0.05000000</i>
  <i type="int" name="LMAXMIX">     4</i>
  <i type="int" name="LORBIT">    11</i>
  <v type="int" name="KPOINT_BSE">    -1     0     0     0</v>
  <i type="string" name="GGA"> Pe</i>
  <i type="logical" name="LDAU"> T  </i>
  <v type="int" name="LDAUL">     1     1</v>
  <v name="LDAUU">     -4.25425425     -3.51351351</v>
  <v name="LDAUJ">      0.00000000      0.00000000</v>
 </incar>
 <structure name="primitive_cell" >
  <crystal>
   <varray name="basis" >
    <v>       0.00000000       3.02920000       3.02920000 </v>
    <v>       3.02920000       0.00000000       3.02920000 </v>
    <v>       3.02920000       3.02920000       0.00000000 </v>
   </varray>
   <i name="volume">     55.59219731 </i>
   <varray name="rec_basis" >
    <v>      -0.16506008       0.16506008       0.16506008 </v>
    <v>       0.16506008      -0.16506008       0.16506008 </v>
    <v>       0.16506008       0.16506008      -0.16506008 </v>
   </varray>
  </crystal>
  <varray name="positions" >
   <v>       0.00000000       0.00000000       0.00000000 </v>
   <v>      -0.25000000      -0.25000000      -0.25000000 </v>
  </varray>
 </structure>
 <varray name="primitive_index" >
  <v type="int" >        1 </v>
  <v type="int" >        2 </v>
 </varray>
 <kpoints>
  <generation param="Gamma">
   <v type="int" name="divisions">       7        7        7 </v>
   <v name="usershift">      0.00000000       0.00000000       0.00000000 </v>
   <v name="genvec1">      0.14285714       0.00000000       0.00000000 </v>
   <v name="genvec2">      0.00000000       0.14285714       0.00000000 </v>
   <v name="genvec3">      0.00000000       0.00000000       0.14285714 </v>
   <v name="shift">      0.00000000       0.00000000       0.00000000 </v>
  </generation>
  <varray name="kpointlist" >
   <v>       0.00000000       0.00000000       0.00000000 </v>
   <v>       0.14285714       0.00000000       0.00000000 </v>
   <v>       0.28571429       0.00000000       0.00000000 </v>
   <v>       0.42857143       0.00000000       0.00000000 </v>
   <v>      -0.42857143       0.00000000       0.00000000 </v>
   <v>      -0.28571429       0.00000000       0.00000000 </v>
   <v>      -0.14285714       0.00000000       0.00000000 </v>
   <v>       0.14285714       0.14285714       0.00000000 </v>
   <v>       0.28571429       0.14285714       0.00000000 </v>
   <v>       0.42857143       0.14285714       0.00000000 </v>
   <v>      -0.42857143       0.14285714       0.00000000 </v>
   <v>      -0.28571429       0.14285714       0.00000000 </v>
   <v>      -0.14285714       0.14285714       0.00000000 </v>
   <v>       0.28571429       0.28571429       0.00000000 </v>
   <v>       0.42857143       0.28571429       0.00000000 </v>
   <v>      -0.42857143       0.28571429       0.00000000 </v>
   <v>      -0.28571429       0.28571429       0.00000000 </v>
   <v>      -0.14285714       0.28571429       0.00000000 </v>
   <v>       0.42857143       0.42857143       0.00000000 </v>
   <v>      -0.42857143       0.42857143       0.00000000 </v>
   <v>      -0.28571429       0.42857143       0.00000000 </v>
   <v>      -0.14285714       0.42857143       0.00000000 </v>
   <v>      -0.28571429      -0.42857143       0.00000000 </v>
   <v>      -0.14285714      -0.42857143       0.00000000 </v>
   <v>      -0.14285714      -0.28571429       0.00000000 </v>
   <v>       0.42857143       0.28571429       0.14285714 </v>
   <v>      -0.42857143       0.28571429       0.14285714 </v>
   <v>      -0.28571429       0.28571429       0.14285714 </v>
   <v>      -0.42857143       0.42857143       0.14285714 </v>
   <v>      -0.28571429       0.42857143       0.14285714 </v>
  </varray>
  <varray name="weights" >
   <v>       0.00291545 </v>
   <v>       0.01166181 </v>
   <v>       0.01166181 </v>
   <v>       0.01166181 </v>
   <v>       0.01166181 </v>
   <v>       0.01166181 </v>
   <v>       0.01166181 </v>
   <v>       0.01749271 </v>
   <v>       0.03498542 </v>
   <v>       0.03498542 </v>
   <v>       0.03498542 </v>
   <v>       0.03498542 </v>
   <v>       0.03498542 </v>
   <v>       0.01749271 </v>
   <v>       0.03498542 </v>
   <v>       0.03498542 </v>
   <v>       0.03498542 </v>
   <v>       0.03498542 </v>
   <v>       0.01749271 </v>
   <v>       0.03498542 </v>
   <v>       0.03498542 </v>
   <v>       0.03498542 </v>
   <v>       0.03498542 </v>
   <v>       0.03498542 </v>
   <v>       0.03498542 </v>
   <v>       0.06997085 </v>
   <v>       0.06997085 </v>
   <v>       0.06997085 </v>
   <v>       0.06997085 </v>
   <v>       0.06997085 </v>
  </varray>
 </kpoints>
 <parameters>
  <separator name="general" >
   <i type="string" name="SYSTEM">unknown system</i>
   <i type="logical" name="LCOMPAT"> F  </i>
  </separator>
  <separator name="electronic" >
   <i type="string" name="PREC">n</i>
   <i name="ENMAX">    400.00000000</i>
   <i name="ENAUG">    462.75800000</i>
   <i name="EDIFF">      0.00001000</i>
   <i type="int" name="IALGO">    53</i>
   <i type="int" name="IWAVPR">    10</i>
   <i type="int" name="NBANDS">    21</i>
   <i name="NELECT">     18.00000000</i>
   <i type="int" name="TURBO">     0</i>
   <i type="int" name="IRESTART">     0</i>
   <i type="int" name="NREBOOT">     0</i>
   <i type="int" name="NMIN">     0</i>
   <i name="EREF">      0.00000000</i>
   <separator name="electronic smearing" >
    <i type="int" name="ISMEAR">     1</i>
    <i name="SIGMA">      0.05000000</i>
    <i name="KSPACING">      0.50000000</i>
    <i type="logical" name="KGAMMA"> T  </i>
   </separator>
   <separator name="electronic projectors" >
    <i type="logical" name="LREAL"> F  </i>
    <v name="ROPT">      0.00000000      0.00000000</v>
    <i type="int" name="LMAXPAW">  -100</i>
    <i type="int" name="LMAXMIX">     4</i>
    <i type="logical" name="NLSPLINE"> F  </i>
   </separator>
   <separator name="electronic startup" >
    <i type="int" name="ISTART">     0</i>
    <i type="int" name="ICHARG">     2</i>
    <i type="int" name="INIWAV">     1</i>
   </separator>
   <separator name="electronic spin" >
    <i type="int" name="ISPIN">     1</i>
    <i type="logical" name="LNONCOLLINEAR"> T  </i>
    <v name="MAGMOM">      0.00000000      0.00000000      0.00000000      0.00000000      0.00000000      0.00000000</v>
    <i name="NUPDOWN">     -1.00000000</i>
    <i type="logical" name="LSORBIT"> T  </i>
    <v name="SAXIS">      0.00000000      0.00000000      1.00000000</v>
    <i type="logical" name="LSPIRAL"> F  </i>
    <v name="QSPIRAL">      0.00000000      0.00000000      0.00000000</v>
    <i type="logical" name="LZEROZ"> F  </i>
   </separator>
   <separator name="electronic exchange-correlation" >
    <i type="logical" name="LASPH"> F  </i>
    <i type="logical" name="LMETAGGA"> F  </i>
   </separator>
   <separator name="electronic convergence" >
    <i type="int" name="NELM">    60</i>
    <i type="int" name="NELMDL">    -5</i>
    <i type="int" name="NELMIN">     2</i>
    <i name="ENINI">    400.00000000</i>
    <separator name="electronic convergence detail" >
     <i type="logical" name="LDIAG"> T  </i>
     <i type="logical" name="LSUBROT"> F  </i>
     <i name="WEIMIN">      0.00000000</i>
     <i name="EBREAK">      0.00000012</i>
     <i name="DEPER">      0.30000000</i>
     <i type="int" name="NRMM">     4</i>
     <i name="TIME">      0.40000000</i>
    </separator>
   </separator>
   <separator name="electronic mixer" >
    <i name="AMIX">      0.40000000</i>
    <i name="BMIX">      3.00000000</i>
    <i name="AMIN">      0.01000000</i>
    <i name="AMIX_MAG">      1.60000000</i>
    <i name="BMIX_MAG">      3.00000000</i>
    <separator name="electronic mixer details" >
     <i type="int" name="IMIX">     4</i>
     <i type="logical" name="MIXFIRST"> F  </i>
     <i type="int" name="MAXMIX">   -45</i>
     <i name="WC">    100.00000000</i>
     <i type="int" name="INIMIX">     1</i>
     <i type="int" name="MIXPRE">     1</i>
     <i type="int" name="MREMOVE">     5</i>
    </separator>
   </separator>
   <separator name="electronic dipolcorrection" >
    <i type="logical" name="LDIPOL"> F  </i>
    <i type="logical" name="LMONO"> F  </i>
    <i type="int" name="IDIPOL">     0</i>
    <i name="EPSILON">      1.00000000</i>
    <v name="DIPOL">   -100.00000000   -100.00000000   -100.00000000</v>
    <i name="EFIELD">      0.00000000</i>
   </separator>
  </separator>
  <separator name="grids" >
   <i type="int" name="NGX">    24</i>
   <i type="int" name="NGY">    24</i>
   <i type="int" name="NGZ">    24</i>
   <i type="int" name="NGXF">    48</i>
   <i type="int" name="NGYF">    48</i>
   <i type="int" name="NGZF">    48</i>
   <i type="logical" name="ADDGRID"> F  </i>
  </separator>
  <separator name="ionic" >
   <i type="int" name="NSW">     0</i>
   <i type="int" name="IBRION">    -1</i>
   <i type="int" name="MDALGO">     0</i>
   <i type="int" name="ISIF">     2</i>
   <i name="PSTRESS">      0.00000000</i>
   <i name="EDIFFG">      0.00010000</i>
   <i type="int" name="NFREE">     0</i>
   <i name="POTIM">      0.50000000</i>
   <i name="SMASS">     -3.00000000</i>
   <i name="SCALEE">      1.00000000</i>
  </separator>
  <separator name="ionic md" >
   <i name="TEBEG">      0.00010000</i>
   <i name="TEEND">      0.00010000</i>
   <i type="int" name="NBLOCK">     1</i>
   <i type="int" name="KBLOCK">     1</i>
   <i type="int" name="NPACO">   256</i>
   <i name="APACO">     16.00000000</i>
  </separator>
  <separator name="symmetry" >
   <i type="int" name="ISYM">     2</i>
   <i name="SYMPREC">      0.00001000</i>
  </separator>
  <separator name="dos" >
   <i type="int" name="LORBIT">    11</i>
   <v name="RWIGS">     -1.00000000     -1.00000000</v>
   <i type="int" name="NEDOS">   301</i>
   <i name="EMIN">     10.00000000</i>
   <i name="EMAX">    -10.00000000</i>
   <i name="EFERMI">      0.00000000</i>
  </separator>
  <separator name="writing" >
   <i type="int" name="NWRITE">     2</i>
   <i type="logical" name="LWAVE"> T  </i>
   <i type="logical" name="LDOWNSAMPLE"> F  </i>
   <i type="logical" name="LCHARG"> T  </i>
   <i type="logical" name="LPARD"> F  </i>
   <i type="logical" name="LVTOT"> F  </i>
   <i type="logical" name="LVHAR"> F  </i>
   <i type="logical" name="LELF"> F  </i>
   <i type="logical" name="LOPTICS"> F  </i>
   <v name="STM">      0.00000000      0.00000000      0.00000000      0.00000000      0.00000000      0.00000000      0.00000000</v>
  </separator>
  <separator name="performance" >
   <i type="int" name="NPAR">     3</i>
   <i type="int" name="NSIM">     4</i>
   <i type="int" name="NBLK">    -1</i>
   <i type="logical" name="LPLANE"> T  </i>
   <i type="logical" name="LSCALAPACK"> T  </i>
   <i type="logical" name="LSCAAWARE"> F  </i>
   <i type="logical" name="LSCALU"> F  </i>
   <i type="logical" name="LASYNC"> F  </i>
   <i type="logical" name="LORBITALREAL"> F  </i>
  </separator>
  <separator name="miscellaneous" >
   <i type="int" name="IDIOT">     3</i>
   <i type="int" name="ISPECIAL">     0</i>
   <i type="logical" name="LMUSIC"> F  </i>
   <v name="POMASS">    114.82000000     74.92200000</v>
   <v name="DARWINR">      0.00000000      0.00000000</v>
   <v name="DARWINV">      1.00000000      1.00000000</v>
   <i type="logical" name="LCORR"> T  </i>
  </separator>
  <i type="logical" name="GGA_COMPAT"> T  </i>
  <i type="logical" name="LBERRY"> F  </i>
  <i type="int" name="ICORELEVEL">     0</i>
  <i type="logical" name="LDAU"> T  </i>
  <v type="int" name="LDAUTYPE">     2</v>
  <v type="int" name="LDAUL">     1</v>
  <v name="LDAUU">     -4.25425425</v>
  <v name="LDAUJ">      0.00000000</v>
  <i type="int" name="LDAUPRINT">     0</i>
  <i type="int" name="I_CONSTRAINED_M">     0</i>
  <separator name="electronic exchange-correlation" >
   <i type="string" name="GGA">PE</i>
   <i type="int" name="VOSKOWN">     0</i>
   <i type="logical" name="LHFCALC"> F  </i>
   <i type="string" name="PRECFOCK"></i>
   <i type="logical" name="LSYMGRAD"> F  </i>
   <i type="logical" name="LHFONE"> F  </i>
   <i type="logical" name="LRHFCALC"> F  </i>
   <i type="logical" name="LTHOMAS"> F  </i>
   <i type="logical" name="LMODELHF"> F  </i>
   <i name="ENCUT4O">     -1.00000000</i>
   <i type="int" name="EXXOEP">     0</i>
   <i type="int" name="FOURORBIT">     0</i>
   <i name="AEXX">      0.00000000</i>
   <i name="HFALPHA">      0.00000000</i>
   <i name="MCALPHA">      0.00000000</i>
   <i name="ALDAX">      1.00000000</i>
   <i name="AGGAX">      1.00000000</i>
   <i name="ALDAC">      1.00000000</i>
   <i name="AGGAC">      1.00000000</i>
   <i type="int" name="NKREDX">     1</i>
   <i type="int" name="NKREDY">     1</i>
   <i type="int" name="NKREDZ">     1</i>
   <i type="logical" name="SHIFTRED"> F  </i>
   <i type="logical" name="ODDONLY"> F  </i>
   <i type="logical" name="EVENONLY"> F  </i>
   <i type="int" name="LMAXFOCK">     0</i>
   <i type="int" name="NMAXFOCKAE">     0</i>
   <i type="logical" name="LFOCKAEDFT"> F  </i>
   <i name="HFSCREEN">      0.00000000</i>
   <i name="HFSCREENC">      0.00000000</i>
   <i type="int" name="NBANDSGWLOW">     0</i>
  </separator>
  <separator name="vdW DFT" >
   <i type="logical" name="LUSE_VDW"> F  </i>
   <i name="Zab_VDW">     -0.84910000</i>
   <i name="PARAM1">      0.12340000</i>
   <i name="PARAM2">      1.00000000</i>
   <i name="PARAM3">      0.00000000</i>
  </separator>
  <separator name="model GW" >
   <i type="int" name="MODEL_GW">     0</i>
   <i name="MODEL_EPS0">     16.67765919</i>
   <i name="MODEL_ALPHA">      1.00000000</i>
  </separator>
  <separator name="linear response parameters" >
   <i type="logical" name="LEPSILON"> F  </i>
   <i type="logical" name="LRPA"> F  </i>
   <i type="logical" name="LNABLA"> F  </i>
   <i type="logical" name="LVEL"> F  </i>
   <i type="int" name="KINTER">     0</i>
   <i name="CSHIFT">      0.10000000</i>
   <i name="OMEGAMAX">     -1.00000000</i>
   <i name="DEG_THRESHOLD">      0.00200000</i>
   <i name="RTIME">     -0.10000000</i>
   <i name="WPLASMAI">      0.00000000</i>
   <v name="DFIELD">      0.00000000      0.00000000      0.00000000</v>
   <v name="WPLASMA">      0.00000000      0.00000000      0.00000000      0.00000000      0.00000000      0.00000000      0.00000000      0.00000000      0.00000000</v>
  </separator>
  <separator name="orbital magnetization" >
   <i type="logical" name="NUCIND"> F  </i>
   <v name="MAGPOS">      0.00000000      0.00000000      0.00000000</v>
   <i type="logical" name="LNICSALL"> T  </i>
   <i type="logical" name="ORBITALMAG"> F  </i>
   <i type="logical" name="LMAGBLOCH"> F  </i>
   <i type="logical" name="LCHIMAG"> F  </i>
   <i type="logical" name="LGAUGE"> T  </i>
   <i type="int" name="MAGATOM">     0</i>
   <v name="MAGDIPOL">      0.00000000      0.00000000      0.00000000</v>
   <v name="AVECCONST">      0.00000000      0.00000000      0.00000000</v>
  </separator>
  <separator name="response functions" >
   <i type="logical" name="LADDER"> F  </i>
   <i type="logical" name="LRPAFORCE"> F  </i>
   <i type="logical" name="LFXC"> F  </i>
   <i type="logical" name="LHARTREE"> T  </i>
   <i type="int" name="IBSE">     0</i>
   <v type="int" name="KPOINT">    -1     0     0     0</v>
   <i type="logical" name="LTCTE"> F  </i>
   <i type="logical" name="LTETE"> F  </i>
   <i type="logical" name="LTRIPLET"> F  </i>
   <i type="logical" name="LFXCEPS"> F  </i>
   <i type="logical" name="LFXHEG"> F  </i>
   <i type="int" name="NATURALO">     2</i>
   <i type="logical" name="L2ORDER"> F  </i>
   <i type="logical" name="LMP2LT"> F  </i>
   <i type="logical" name="LUSEW"> F  </i>
   <i name="ENCUTGW">     -2.00000000</i>
   <i name="ENCUTGWSOFT">     -2.00000000</i>
   <i name="ENCUTLF">     -1.00000000</i>
   <i type="int" name="LMAXMP2">    -1</i>
   <i name="SCISSOR">      0.00000000</i>
   <i type="int" name="NOMEGA">     0</i>
   <i type="int" name="NOMEGAR">     0</i>
   <i type="int" name="NBANDSGW">    -1</i>
   <i type="int" name="NBANDSO">    -1</i>
   <i type="int" name="NBANDSV">    -1</i>
   <i type="int" name="NELM">     1</i>
   <i type="int" name="NELMHF">     1</i>
   <i type="int" name="DIM">     3</i>
   <i type="int" name="ANTIRES">     0</i>
   <i name="OMEGAMAX">    -30.00000000</i>
   <i name="OMEGAMIN">    -30.00000000</i>
   <i name="OMEGATL">   -200.00000000</i>
   <i type="int" name="OMEGAGRID">   140</i>
   <i name="CSHIFT">     -0.10000000</i>
   <i type="logical" name="SELFENERGY"> F  </i>
   <i type="logical" name="LSPECTRAL"> F  </i>
   <i type="logical" name="LSPECTRALGW"> F  </i>
   <i type="logical" name="LSINGLES"> F  </i>
   <i type="logical" name="LFERMIGW"> F  </i>
   <i type="logical" name="ODDONLYGW"> F  </i>
   <i type="logical" name="EVENONLYGW"> F  </i>
   <i type="int" name="NKREDLFX">     1</i>
   <i type="int" name="NKREDLFY">     1</i>
   <i type="int" name="NKREDLFZ">     1</i>
   <i type="int" name="MAXMEM">  2800</i>
   <i type="int" name="TELESCOPE">     0</i>
   <i type="int" name="TAUPAR">     1</i>
   <i type="int" name="OMEGAPAR">    -1</i>
   <i name="LAMBDA">      1.00000000</i>
  </separator>
  <separator name="External order field" >
   <i name="OFIELD_KAPPA">      0.00000000</i>
   <v name="OFIELD_K">      0.00000000      0.00000000      0.00000000</v>
   <i name="OFIELD_Q6_NEAR">      0.00000000</i>
   <i name="OFIELD_Q6_FAR">      0.00000000</i>
   <i name="OFIELD_A">      0.00000000</i>
  </separator>
 </parameters>
 <atominfo>
  <atoms>       2 </atoms>
  <types>       2 </types>
  <array name="atoms" >
   <dimension dim="1">ion</dimension>
   <field type="string">element</field>
   <field type="int">atomtype</field>
   <set>
    <rc><c>In</c><c>   1</c></rc>
    <rc><c>As</c><c>   2</c></rc>
   </set>
  </array>
  <array name="atomtypes" >
   <dimension dim="1">type</dimension>
   <field type="int">atomspertype</field>
   <field type="string">element</field>
   <field>mass</field>
   <field>valence</field>
   <field type="string">pseudopotential</field>
   <set>
    <rc><c>   1</c><c>In</c><c>    114.82000000</c><c>     13.00000000</c><c>  PAW_PBE In_d 06Sep2000                </c></rc>
    <rc><c>   1</c><c>As</c><c>     74.92200000</c><c>      5.00000000</c><c>  PAW_PBE As 22Sep2009                  </c></rc>
   </set>
  </array>
 </atominfo>
 <structure name="initialpos" >
  <crystal>
   <varray name="basis" >
    <v>       0.00000000       3.02920000       3.02920000 </v>
    <v>       3.02920000       0.00000000       3.02920000 </v>
    <v>       3.02920000       3.02920000       0.00000000 </v>
   </varray>
   <i name="volume">     55.59219731 </i>
   <varray name="rec_basis" >
    <v>      -0.16506008       0.16506008       0.16506008 </v>
    <v>       0.16506008      -0.16506008       0.16506008 </v>
    <v>       0.16506008       0.16506008      -0.16506008 </v>
   </varray>
  </crystal>
  <varray name="positions" >
   <v>       0.00000000       0.00000000       0.00000000 </v>
   <v>       0.75000000       0.75000000       0.75000000 </v>
  </varray>
 </structure>
 <calculation>
  <scstep>
   <time name="total">    0.17    0.32</time>
   <energy>
    <i name="alphaZ">     38.22227472 </i>
    <i name="ewald">  -1180.94574891 </i>
    <i name="hartreedc">   -574.28475018 </i>
    <i name="XCdc">     30.05432960 </i>
    <i name="pawpsdc">   1528.00464014 </i>
    <i name="pawaedc">  -1497.73841135 </i>
    <i name="eentropy">     -0.00008974 </i>
    <i name="bandstr">     97.18758186 </i>
    <i name="atom">   1747.01046045 </i>
    <i name="e_fr_energy">    187.51028658 </i>
    <i name="e_wo_entrp">    187.51037631 </i>
    <i name="e_0_energy">    187.51031649 </i>
   </energy>
  </scstep>
  <scstep>
   <time name="total">    0.08    0.08</time>
   <energy>
    <i name="e_fr_energy">     51.50045781 </i>
    <i name="e_wo_entrp">     51.50066922 </i>
    <i name="e_0_energy">     51.50052828 </i>
   </energy>
  </scstep>
  <scstep>
   <time name="total">    0.06    0.06</time>
   <energy>
    <i name="e_fr_energy">      7.28329750 </i>
    <i name="e_wo_entrp">      7.28326445 </i>
    <i name="e_0_energy">      7.28328648 </i>
   </energy>
  </scstep>
  <scstep>
   <time name="total">    0.08    0.08</time>
   <energy>
    <i name="e_fr_energy">     -8.90757415 </i>
    <i name="e_wo_entrp">     -8.90751701 </i>
    <i name="e_0_energy">     -8.90755510 </i>
   </energy>
  </scstep>
  <scstep>
   <time name="total">    0.14    0.24</time>
   <energy>
    <i name="e_fr_energy">    -11.37556866 </i>
    <i name="e_wo_entrp">    -11.37557288 </i>
    <i name="e_0_energy">    -11.37557007 </i>
   </energy>
  </scstep>
  <scstep>
   <time name="total">    0.08    0.08</time>
   <energy>
    <i name="e_fr_energy">    -10.22912291 </i>
    <i name="e_wo_entrp">    -10.22912714 </i>
    <i name="e_0_energy">    -10.22912432 </i>
   </energy>
  </scstep>
  <scstep>
   <time name="total">    0.07    0.07</time>
   <energy>
    <i name="e_fr_energy">    -10.91686206 </i>
    <i name="e_wo_entrp">    -10.91686629 </i>
    <i name="e_0_energy">    -10.91686347 </i>
   </energy>
  </scstep>
  <scstep>
   <time name="total">    0.07    0.07</time>
   <energy>
    <i name="e_fr_energy">    -11.28727634 </i>
    <i name="e_wo_entrp">    -11.28728056 </i>
    <i name="e_0_energy">    -11.28727774 </i>
   </energy>
  </scstep>
  <scstep>
   <time name="total">    0.07    0.07</time>
   <energy>
    <i name="e_fr_energy">    -11.43548873 </i>
    <i name="e_wo_entrp">    -11.43549295 </i>
    <i name="e_0_energy">    -11.43549013 </i>
   </energy>
  </scstep>
  <scstep>
   <time name="total">    0.07    0.07</time>
   <energy>
    <i name="e_fr_energy">    -11.50293018 </i>
    <i name="e_wo_entrp">    -11.50293440 </i>
    <i name="e_0_energy">    -11.50293159 </i>
   </energy>
  </scstep>
  <scstep>
   <time name="total">    0.07    0.07</time>
   <energy>
    <i name="e_fr_energy">    -11.53668887 </i>
    <i name="e_wo_entrp">    -11.53669310 </i>
    <i name="e_0_energy">    -11.53669028 </i>
   </energy>
  </scstep>
  <scstep>
   <time name="total">    0.07    0.07</time>
   <energy>
    <i name="e_fr_energy">    -11.55149947 </i>
    <i name="e_wo_entrp">    -11.55150379 </i>
    <i name="e_0_energy">    -11.55150091 </i>
   </energy>
  </scstep>
  <scstep>
   <time name="total">    0.07    0.07</time>
   <energy>
    <i name="e_fr_energy">    -11.55800820 </i>
    <i name="e_wo_entrp">    -11.55801496 </i>
    <i name="e_0_energy">    -11.55801045 </i>
   </energy>
  </scstep>
  <scstep>
   <time name="total">    0.07    0.07</time>
   <energy>
    <i name="e_fr_energy">    -11.56117208 </i>
    <i name="e_wo_entrp">    -11.56118869 </i>
    <i name="e_0_energy">    -11.56117762 </i>
   </energy>
  </scstep>
  <scstep>
   <time name="total">    0.07    0.07</time>
   <energy>
    <i name="e_fr_energy">    -11.56281323 </i>
    <i name="e_wo_entrp">    -11.56279911 </i>
    <i name="e_0_energy">    -11.56280852 </i>
   </energy>
  </scstep>
  <scstep>
   <time name="total">    0.07    0.07</time>
   <energy>
    <i name="e_fr_energy">    -11.56384251 </i>
    <i name="e_wo_entrp">    -11.56381396 </i>
    <i name="e_0_energy">    -11.56383299 </i>
   </energy>
  </scstep>
  <scstep>
   <time name="total">    0.07    0.07</time>
   <energy>
    <i name="e_fr_energy">    -11.56450744 </i>
    <i name="e_wo_entrp">    -11.56449029 </i>
    <i name="e_0_energy">    -11.56450172 </i>
   </energy>
  </scstep>
  <scstep>
   <time name="total">    0.07    0.08</time>
   <energy>
    <i name="e_fr_energy">    -11.56478265 </i>
    <i name="e_wo_entrp">    -11.56477300 </i>
    <i name="e_0_energy">    -11.56477943 </i>
   </energy>
  </scstep>
  <scstep>
   <time name="total">    0.07    0.07</time>
   <energy>
    <i name="e_fr_energy">    -11.56493343 </i>
    <i name="e_wo_entrp">    -11.56493727 </i>
    <i name="e_0_energy">    -11.56493471 </i>
   </energy>
  </scstep>
  <scstep>
   <time name="total">    0.07    0.07</time>
   <energy>
    <i name="e_fr_energy">    -11.56506125 </i>
    <i name="e_wo_entrp">    -11.56508345 </i>
    <i name="e_0_energy">    -11.56506865 </i>
   </energy>
  </scstep>
  <scstep>
   <time name="total">    0.07    0.07</time>
   <energy>
    <i name="e_fr_energy">    -11.56516033 </i>
    <i name="e_wo_entrp">    -11.56519070 </i>
    <i name="e_0_energy">    -11.56517045 </i>
   </energy>
  </scstep>
  <scstep>
   <time name="total">    0.07    0.07</time>
   <energy>
    <i name="e_fr_energy">    -11.56520216 </i>
    <i name="e_wo_entrp">    -11.56522186 </i>
    <i name="e_0_energy">    -11.56520873 </i>
   </energy>
  </scstep>
  <scstep>
   <time name="total">    0.07    0.07</time>
   <energy>
    <i name="e_fr_energy">    -11.56522601 </i>
    <i name="e_wo_entrp">    -11.56524248 </i>
    <i name="e_0_energy">    -11.56523150 </i>
   </energy>
  </scstep>
  <scstep>
   <time name="total">    0.08    0.08</time>
   <energy>
    <i name="alphaZ">     38.22227472 </i>
    <i name="ewald">  -1180.94574891 </i>
    <i name="hartreedc">   -572.36360965 </i>
    <i name="XCdc">     30.34174045 </i>
    <i name="pawpsdc">  10419.61174471 </i>
    <i name="pawaedc"> -10391.20413904 </i>
    <i name="eentropy">      0.00001524 </i>
    <i name="bandstr">   -102.23797118 </i>
    <i name="atom">   1747.01046045 </i>
    <i name="e_fr_energy">    -11.56523198 </i>
    <i name="e_wo_entrp">    -11.56524722 </i>
    <i name="e_0_energy">    -11.56523706 </i>
   </energy>
  </scstep>
  <structure>
   <crystal>
    <varray name="basis" >
     <v>       0.00000000       3.02920000       3.02920000 </v>
     <v>       3.02920000       0.00000000       3.02920000 </v>
     <v>       3.02920000       3.02920000       0.00000000 </v>
    </varray>
    <i name="volume">     55.59219731 </i>
    <varray name="rec_basis" >
     <v>      -0.16506008       0.16506008       0.16506008 </v>
     <v>       0.16506008      -0.16506008       0.16506008 </v>
     <v>       0.16506008       0.16506008      -0.16506008 </v>
    </varray>
   </crystal>
   <varray name="positions" >
    <v>       0.00000000       0.00000000       0.00000000 </v>
    <v>       0.75000000       0.75000000       0.75000000 </v>
   </varray>
  </structure>
  <varray name="forces" >
   <v>       0.00000000       0.00000000       0.00000000 </v>
   <v>      -0.00000000      -0.00000000      -0.00000000 </v>
  </varray>
  <varray name="stress" >
   <v>     -26.66174406       0.00000000       0.00000000 </v>
   <v>       0.00000000     -26.66174406      -0.00000000 </v>
   <v>      -0.00000000       0.00000000     -26.66174406 </v>
  </varray>
  <energy>
   <i name="e_fr_energy">    -11.56523198 </i>
   <i name="e_wo_entrp">    -11.56523706 </i>
   <i name="e_0_energy">      0.00001524 </i>
  </energy>
  <time name="totalsc">    2.34    2.92</time>
  <eigenvalues>
   <array>
    <dimension dim="1">band</dimension>
    <dimension dim="2">kpoint</dimension>
    <dimension dim="3">spin</dimension>
    <field>eigene</field>
    <field>occ</field>
    <set>
     <set comment="spin 1">
      <set comment="kpoint 1">
       <r>  -10.2675    1.0000 </r>
       <r>  -10.2675    1.0000 </r>
       <r>  -10.2675    1.0000 </r>
       <r>  -10.2675    1.0000 </r>
       <r>   -9.4767    1.0000 </r>
       <r>   -9.4767    1.0000 </r>
       <r>   -9.3907    1.0000 </r>
       <r>   -9.3907    1.0000 </r>
       <r>   -9.3907    1.0000 </r>
       <r>   -9.3907    1.0000 </r>
       <r>   -7.3172    1.0000 </r>
       <r>   -7.3172    1.0000 </r>
       <r>    3.8099    1.0000 </r>
       <r>    3.8099    1.0000 </r>
       <r>    4.1303    1.0027 </r>
       <r>    4.1303    1.0027 </r>
       <r>    4.1303    1.0030 </r>
       <r>    4.1305    1.0056 </r>
       <r>    4.2873   -0.0004 </r>
       <r>    4.2875   -0.0136 </r>
       <r>    7.8461    0.0000 </r>
      </set>
      <set comment="kpoint 2">
       <r>  -10.2721    1.0000 </r>
       <r>  -10.2721    1.0000 </r>
       <r>  -10.2699    1.0000 </r>
       <r>  -10.2619    1.0000 </r>
       <r>   -9.4814    1.0000 </r>
       <r>   -9.4814    1.0000 </r>
       <r>   -9.4004    1.0000 </r>
       <r>   -9.4004    1.0000 </r>
       <r>   -9.3895    1.0000 </r>
       <r>   -9.3797    1.0000 </r>
       <r>   -7.1159    1.0000 </r>
       <r>   -7.1159    1.0000 </r>
       <r>    2.0986    1.0000 </r>
       <r>    2.0986    1.0000 </r>
       <r>    3.6577    1.0000 </r>
       <r>    3.6577    1.0000 </r>
       <r>    3.8700    1.0000 </r>
       <r>    3.8799    1.0000 </r>
       <r>    5.4239   -0.0000 </r>
       <r>    5.4239   -0.0000 </r>
       <r>    8.0394    0.0000 </r>
      </set>
      <set comment="kpoint 3">
       <r>  -10.2835    1.0000 </r>
       <r>  -10.2835    1.0000 </r>
       <r>  -10.2674    1.0000 </r>
       <r>  -10.2576    1.0000 </r>
       <r>   -9.4904    1.0000 </r>
       <r>   -9.4904    1.0000 </r>
       <r>   -9.4171    1.0000 </r>
       <r>   -9.4171    1.0000 </r>
       <r>   -9.3764    1.0000 </r>
       <r>   -9.3642    1.0000 </r>
       <r>   -6.5836    1.0000 </r>
       <r>   -6.5836    1.0000 </r>
       <r>    0.1102    1.0000 </r>
       <r>    0.1102    1.0000 </r>
       <r>    3.2013    1.0000 </r>
       <r>    3.2013    1.0000 </r>
       <r>    3.4195    1.0000 </r>
       <r>    3.4302    1.0000 </r>
       <r>    5.4837   -0.0000 </r>
       <r>    5.4837   -0.0000 </r>
       <r>    8.6266    0.0000 </r>
      </set>
      <set comment="kpoint 4">
       <r>  -10.2939    1.0000 </r>
       <r>  -10.2939    1.0000 </r>
       <r>  -10.2623    1.0000 </r>
       <r>  -10.2579    1.0000 </r>
       <r>   -9.4960    1.0000 </r>
       <r>   -9.4960    1.0000 </r>
       <r>   -9.4270    1.0000 </r>
       <r>   -9.4270    1.0000 </r>
       <r>   -9.3610    1.0000 </r>
       <r>   -9.3556    1.0000 </r>
       <r>   -6.0093    1.0000 </r>
       <r>   -6.0093    1.0000 </r>
       <r>   -1.2466    1.0000 </r>
       <r>   -1.2466    1.0000 </r>
       <r>    2.9095    1.0000 </r>
       <r>    2.9095    1.0000 </r>
       <r>    3.1333    1.0000 </r>
       <r>    3.1377    1.0000 </r>
       <r>    5.3319   -0.0000 </r>
       <r>    5.3319   -0.0000 </r>
       <r>    8.6855    0.0000 </r>
      </set>
      <set comment="kpoint 5">
       <r>  -10.2939    1.0000 </r>
       <r>  -10.2939    1.0000 </r>
       <r>  -10.2623    1.0000 </r>
       <r>  -10.2579    1.0000 </r>
       <r>   -9.4960    1.0000 </r>
       <r>   -9.4960    1.0000 </r>
       <r>   -9.4270    1.0000 </r>
       <r>   -9.4270    1.0000 </r>
       <r>   -9.3610    1.0000 </r>
       <r>   -9.3556    1.0000 </r>
       <r>   -6.0093    1.0000 </r>
       <r>   -6.0093    1.0000 </r>
       <r>   -1.2466    1.0000 </r>
       <r>   -1.2466    1.0000 </r>
       <r>    2.9095    1.0000 </r>
       <r>    2.9095    1.0000 </r>
       <r>    3.1333    1.0000 </r>
       <r>    3.1377    1.0000 </r>
       <r>    5.3319   -0.0000 </r>
       <r>    5.3319   -0.0000 </r>
       <r>    8.7117    0.0000 </r>
      </set>
      <set comment="kpoint 6">
       <r>  -10.2835    1.0000 </r>
       <r>  -10.2835    1.0000 </r>
       <r>  -10.2674    1.0000 </r>
       <r>  -10.2576    1.0000 </r>
       <r>   -9.4904    1.0000 </r>
       <r>   -9.4904    1.0000 </r>
       <r>   -9.4171    1.0000 </r>
       <r>   -9.4171    1.0000 </r>
       <r>   -9.3764    1.0000 </r>
       <r>   -9.3642    1.0000 </r>
       <r>   -6.5836    1.0000 </r>
       <r>   -6.5836    1.0000 </r>
       <r>    0.1102    1.0000 </r>
       <r>    0.1102    1.0000 </r>
       <r>    3.2013    1.0000 </r>
       <r>    3.2013    1.0000 </r>
       <r>    3.4195    1.0000 </r>
       <r>    3.4302    1.0000 </r>
       <r>    5.4837   -0.0000 </r>
       <r>    5.4837   -0.0000 </r>
       <r>    8.6374    0.0000 </r>
      </set>
      <set comment="kpoint 7">
       <r>  -10.2721    1.0000 </r>
       <r>  -10.2721    1.0000 </r>
       <r>  -10.2699    1.0000 </r>
       <r>  -10.2619    1.0000 </r>
       <r>   -9.4814    1.0000 </r>
       <r>   -9.4814    1.0000 </r>
       <r>   -9.4004    1.0000 </r>
       <r>   -9.4004    1.0000 </r>
       <r>   -9.3895    1.0000 </r>
       <r>   -9.3797    1.0000 </r>
       <r>   -7.1159    1.0000 </r>
       <r>   -7.1159    1.0000 </r>
       <r>    2.0986    1.0000 </r>
       <r>    2.0986    1.0000 </r>
       <r>    3.6577    1.0000 </r>
       <r>    3.6577    1.0000 </r>
       <r>    3.8700    1.0000 </r>
       <r>    3.8799    1.0000 </r>
       <r>    5.4239   -0.0000 </r>
       <r>    5.4239   -0.0000 </r>
       <r>    8.0888    0.0000 </r>
      </set>
      <set comment="kpoint 8">
       <r>  -10.2789    1.0000 </r>
       <r>  -10.2789    1.0000 </r>
       <r>  -10.2599    1.0000 </r>
       <r>  -10.2599    1.0000 </r>
       <r>   -9.4849    1.0000 </r>
       <r>   -9.4849    1.0000 </r>
       <r>   -9.3946    1.0000 </r>
       <r>   -9.3946    1.0000 </r>
       <r>   -9.3885    1.0000 </r>
       <r>   -9.3885    1.0000 </r>
       <r>   -7.0499    1.0000 </r>
       <r>   -7.0499    1.0000 </r>
       <r>    2.0824    1.0000 </r>
       <r>    2.0824    1.0000 </r>
       <r>    3.2843    1.0000 </r>
       <r>    3.2843    1.0000 </r>
       <r>    3.4097    1.0000 </r>
       <r>    3.4097    1.0000 </r>
       <r>    6.1624    0.0000 </r>
       <r>    6.7433    0.0000 </r>
       <r>    7.1142    0.0000 </r>
      </set>
      <set comment="kpoint 9">
       <r>  -10.2991    1.0000 </r>
       <r>  -10.2820    1.0000 </r>
       <r>  -10.2581    1.0000 </r>
       <r>  -10.2500    1.0000 </r>
       <r>   -9.5124    1.0000 </r>
       <r>   -9.4782    1.0000 </r>
       <r>   -9.4067    1.0000 </r>
       <r>   -9.4011    1.0000 </r>
       <r>   -9.3802    1.0000 </r>
       <r>   -9.3737    1.0000 </r>
       <r>   -6.6301    1.0000 </r>
       <r>   -6.6236    1.0000 </r>
       <r>    0.5900    1.0000 </r>
       <r>    0.5902    1.0000 </r>
       <r>    2.7522    1.0000 </r>
       <r>    2.7842    1.0000 </r>
       <r>    2.9184    1.0000 </r>
       <r>    2.9243    1.0000 </r>
       <r>    6.4988    0.0000 </r>
       <r>    6.5270    0.0000 </r>
       <r>    7.4332    0.0000 </r>
      </set>
      <set comment="kpoint 10">
       <r>  -10.3194    1.0000 </r>
       <r>  -10.2843    1.0000 </r>
       <r>  -10.2548    1.0000 </r>
       <r>  -10.2440    1.0000 </r>
       <r>   -9.5386    1.0000 </r>
       <r>   -9.4660    1.0000 </r>
       <r>   -9.4218    1.0000 </r>
       <r>   -9.4096    1.0000 </r>
       <r>   -9.3648    1.0000 </r>
       <r>   -9.3616    1.0000 </r>
       <r>   -6.0430    1.0000 </r>
       <r>   -6.0331    1.0000 </r>
       <r>   -0.8724    1.0000 </r>
       <r>   -0.8570    1.0000 </r>
       <r>    2.2198    1.0000 </r>
       <r>    2.2509    1.0000 </r>
       <r>    2.6612    1.0000 </r>
       <r>    2.6646    1.0000 </r>
       <r>    6.3390    0.0000 </r>
       <r>    6.3577    0.0000 </r>
       <r>    8.2471    0.0000 </r>
      </set>
      <set comment="kpoint 11">
       <r>  -10.3257    1.0000 </r>
       <r>  -10.2858    1.0000 </r>
       <r>  -10.2517    1.0000 </r>
       <r>  -10.2432    1.0000 </r>
       <r>   -9.5470    1.0000 </r>
       <r>   -9.4569    1.0000 </r>
       <r>   -9.4324    1.0000 </r>
       <r>   -9.4120    1.0000 </r>
       <r>   -9.3598    1.0000 </r>
       <r>   -9.3576    1.0000 </r>
       <r>   -5.8049    1.0000 </r>
       <r>   -5.7946    1.0000 </r>
       <r>   -1.3436    1.0000 </r>
       <r>   -1.3203    1.0000 </r>
       <r>    1.9075    1.0000 </r>
       <r>    1.9288    1.0000 </r>
       <r>    2.7761    1.0000 </r>
       <r>    2.7839    1.0000 </r>
       <r>    6.2869    0.0000 </r>
       <r>    6.2921    0.0000 </r>
       <r>    8.5080    0.0000 </r>
      </set>
      <set comment="kpoint 12">
       <r>  -10.3133    1.0000 </r>
       <r>  -10.2844    1.0000 </r>
       <r>  -10.2518    1.0000 </r>
       <r>  -10.2482    1.0000 </r>
       <r>   -9.5346    1.0000 </r>
       <r>   -9.4615    1.0000 </r>
       <r>   -9.4269    1.0000 </r>
       <r>   -9.4079    1.0000 </r>
       <r>   -9.3694    1.0000 </r>
       <r>   -9.3629    1.0000 </r>
       <r>   -6.2388    1.0000 </r>
       <r>   -6.2271    1.0000 </r>
       <r>   -0.4480    1.0000 </r>
       <r>   -0.4315    1.0000 </r>
       <r>    1.9893    1.0000 </r>
       <r>    2.0085    1.0000 </r>
       <r>    3.1876    1.0000 </r>
       <r>    3.2000    1.0000 </r>
       <r>    6.3639    0.0000 </r>
       <r>    6.3660    0.0000 </r>
       <r>    8.7777    0.0000 </r>
      </set>
      <set comment="kpoint 13">
       <r>  -10.2898    1.0000 </r>
       <r>  -10.2795    1.0000 </r>
       <r>  -10.2586    1.0000 </r>
       <r>  -10.2563    1.0000 </r>
       <r>   -9.5061    1.0000 </r>
       <r>   -9.4721    1.0000 </r>
       <r>   -9.4122    1.0000 </r>
       <r>   -9.4017    1.0000 </r>
       <r>   -9.3829    1.0000 </r>
       <r>   -9.3739    1.0000 </r>
       <r>   -6.8068    1.0000 </r>
       <r>   -6.7994    1.0000 </r>
       <r>    1.0329    1.0000 </r>
       <r>    1.0343    1.0000 </r>
       <r>    2.6401    1.0000 </r>
       <r>    2.6696    1.0000 </r>
       <r>    3.6681    1.0000 </r>
       <r>    3.6834    1.0000 </r>
       <r>    6.1775    0.0000 </r>
       <r>    6.2914    0.0000 </r>
       <r>    8.2382    0.0000 </r>
      </set>
      <set comment="kpoint 14">
       <r>  -10.3035    1.0000 </r>
       <r>  -10.3035    1.0000 </r>
       <r>  -10.2451    1.0000 </r>
       <r>  -10.2451    1.0000 </r>
       <r>   -9.5065    1.0000 </r>
       <r>   -9.5065    1.0000 </r>
       <r>   -9.3879    1.0000 </r>
       <r>   -9.3879    1.0000 </r>
       <r>   -9.3803    1.0000 </r>
       <r>   -9.3803    1.0000 </r>
       <r>   -6.3437    1.0000 </r>
       <r>   -6.3437    1.0000 </r>
       <r>    0.1971    1.0000 </r>
       <r>    0.1971    1.0000 </r>
       <r>    2.3105    1.0000 </r>
       <r>    2.3105    1.0000 </r>
       <r>    2.3659    1.0000 </r>
       <r>    2.3659    1.0000 </r>
       <r>    6.2509    0.0000 </r>
       <r>    6.2512    0.0000 </r>
       <r>    7.0305    0.0000 </r>
      </set>
      <set comment="kpoint 15">
       <r>  -10.3313    1.0000 </r>
       <r>  -10.2979    1.0000 </r>
       <r>  -10.2432    1.0000 </r>
       <r>  -10.2334    1.0000 </r>
       <r>   -9.5477    1.0000 </r>
       <r>   -9.4827    1.0000 </r>
       <r>   -9.3942    1.0000 </r>
       <r>   -9.3895    1.0000 </r>
       <r>   -9.3739    1.0000 </r>
       <r>   -9.3634    1.0000 </r>
       <r>   -5.8594    1.0000 </r>
       <r>   -5.8513    1.0000 </r>
       <r>   -0.7431    1.0000 </r>
       <r>   -0.7265    1.0000 </r>
       <r>    1.6301    1.0000 </r>
       <r>    1.6585    1.0000 </r>
       <r>    2.0821    1.0000 </r>
       <r>    2.0845    1.0000 </r>
       <r>    6.3583    0.0000 </r>
       <r>    6.3945    0.0000 </r>
       <r>    7.3985    0.0000 </r>
      </set>
      <set comment="kpoint 16">
       <r>  -10.3462    1.0000 </r>
       <r>  -10.2918    1.0000 </r>
       <r>  -10.2426    1.0000 </r>
       <r>  -10.2247    1.0000 </r>
       <r>   -9.5752    1.0000 </r>
       <r>   -9.4607    1.0000 </r>
       <r>   -9.4041    1.0000 </r>
       <r>   -9.3980    1.0000 </r>
       <r>   -9.3668    1.0000 </r>
       <r>   -9.3572    1.0000 </r>
       <r>   -5.5316    1.0000 </r>
       <r>   -5.5214    1.0000 </r>
       <r>   -1.2607    1.0000 </r>
       <r>   -1.2165    1.0000 </r>
       <r>    0.9347    1.0000 </r>
       <r>    0.9497    1.0000 </r>
       <r>    2.1997    1.0000 </r>
       <r>    2.2054    1.0000 </r>
       <r>    6.5254    0.0000 </r>
       <r>    6.5310    0.0000 </r>
       <r>    8.8251    0.0000 </r>
      </set>
      <set comment="kpoint 17">
       <r>  -10.3392    1.0000 </r>
       <r>  -10.2884    1.0000 </r>
       <r>  -10.2453    1.0000 </r>
       <r>  -10.2279    1.0000 </r>
       <r>   -9.5707    1.0000 </r>
       <r>   -9.4485    1.0000 </r>
       <r>   -9.4243    1.0000 </r>
       <r>   -9.4006    1.0000 </r>
       <r>   -9.3641    1.0000 </r>
       <r>   -9.3605    1.0000 </r>
       <r>   -5.7513    1.0000 </r>
       <r>   -5.7373    1.0000 </r>
       <r>   -0.9688    1.0000 </r>
       <r>   -0.9233    1.0000 </r>
       <r>    0.9204    1.0000 </r>
       <r>    0.9271    1.0000 </r>
       <r>    2.6497    1.0000 </r>
       <r>    2.6592    1.0000 </r>
       <r>    6.7729    0.0000 </r>
       <r>    6.7848    0.0000 </r>
       <r>    9.4534    0.0000 </r>
      </set>
      <set comment="kpoint 18">
       <r>  -10.3133    1.0000 </r>
       <r>  -10.2844    1.0000 </r>
       <r>  -10.2518    1.0000 </r>
       <r>  -10.2482    1.0000 </r>
       <r>   -9.5346    1.0000 </r>
       <r>   -9.4615    1.0000 </r>
       <r>   -9.4269    1.0000 </r>
       <r>   -9.4079    1.0000 </r>
       <r>   -9.3694    1.0000 </r>
       <r>   -9.3629    1.0000 </r>
       <r>   -6.2388    1.0000 </r>
       <r>   -6.2271    1.0000 </r>
       <r>   -0.4480    1.0000 </r>
       <r>   -0.4315    1.0000 </r>
       <r>    1.9893    1.0000 </r>
       <r>    2.0085    1.0000 </r>
       <r>    3.1876    1.0000 </r>
       <r>    3.2000    1.0000 </r>
       <r>    6.3639    0.0000 </r>
       <r>    6.3660    0.0000 </r>
       <r>    8.9144    0.0000 </r>
      </set>
      <set comment="kpoint 19">
       <r>  -10.3237    1.0000 </r>
       <r>  -10.3237    1.0000 </r>
       <r>  -10.2340    1.0000 </r>
       <r>  -10.2340    1.0000 </r>
       <r>   -9.5207    1.0000 </r>
       <r>   -9.5207    1.0000 </r>
       <r>   -9.3859    1.0000 </r>
       <r>   -9.3859    1.0000 </r>
       <r>   -9.3619    1.0000 </r>
       <r>   -9.3619    1.0000 </r>
       <r>   -5.5558    1.0000 </r>
       <r>   -5.5558    1.0000 </r>
       <r>   -1.1932    1.0000 </r>
       <r>   -1.1932    1.0000 </r>
       <r>    1.7320    1.0000 </r>
       <r>    1.7320    1.0000 </r>
       <r>    1.7479    1.0000 </r>
       <r>    1.7479    1.0000 </r>
       <r>    5.8355    0.0000 </r>
       <r>    5.8394    0.0000 </r>
       <r>    6.5669    0.0000 </r>
      </set>
      <set comment="kpoint 20">
       <r>  -10.3449    1.0000 </r>
       <r>  -10.3055    1.0000 </r>
       <r>  -10.2368    1.0000 </r>
       <r>  -10.2262    1.0000 </r>
       <r>   -9.5608    1.0000 </r>
       <r>   -9.4851    1.0000 </r>
       <r>   -9.3912    1.0000 </r>
       <r>   -9.3777    1.0000 </r>
       <r>   -9.3752    1.0000 </r>
       <r>   -9.3540    1.0000 </r>
       <r>   -5.3940    1.0000 </r>
       <r>   -5.3888    1.0000 </r>
       <r>   -1.3877    1.0000 </r>
       <r>   -1.3589    1.0000 </r>
       <r>    1.1887    1.0000 </r>
       <r>    1.2095    1.0000 </r>
       <r>    1.7872    1.0000 </r>
       <r>    1.7900    1.0000 </r>
       <r>    6.1218    0.0000 </r>
       <r>    6.1535    0.0000 </r>
       <r>    7.1820    0.0000 </r>
      </set>
      <set comment="kpoint 21">
       <r>  -10.3462    1.0000 </r>
       <r>  -10.2918    1.0000 </r>
       <r>  -10.2426    1.0000 </r>
       <r>  -10.2247    1.0000 </r>
       <r>   -9.5752    1.0000 </r>
       <r>   -9.4607    1.0000 </r>
       <r>   -9.4041    1.0000 </r>
       <r>   -9.3980    1.0000 </r>
       <r>   -9.3668    1.0000 </r>
       <r>   -9.3572    1.0000 </r>
       <r>   -5.5316    1.0000 </r>
       <r>   -5.5214    1.0000 </r>
       <r>   -1.2607    1.0000 </r>
       <r>   -1.2165    1.0000 </r>
       <r>    0.9347    1.0000 </r>
       <r>    0.9497    1.0000 </r>
       <r>    2.1997    1.0000 </r>
       <r>    2.2054    1.0000 </r>
       <r>    6.5254    0.0000 </r>
       <r>    6.5310    0.0000 </r>
       <r>    9.1461    0.0000 </r>
      </set>
      <set comment="kpoint 22">
       <r>  -10.3257    1.0000 </r>
       <r>  -10.2858    1.0000 </r>
       <r>  -10.2517    1.0000 </r>
       <r>  -10.2432    1.0000 </r>
       <r>   -9.5470    1.0000 </r>
       <r>   -9.4569    1.0000 </r>
       <r>   -9.4324    1.0000 </r>
       <r>   -9.4120    1.0000 </r>
       <r>   -9.3598    1.0000 </r>
       <r>   -9.3576    1.0000 </r>
       <r>   -5.8049    1.0000 </r>
       <r>   -5.7946    1.0000 </r>
       <r>   -1.3436    1.0000 </r>
       <r>   -1.3203    1.0000 </r>
       <r>    1.9075    1.0000 </r>
       <r>    1.9288    1.0000 </r>
       <r>    2.7761    1.0000 </r>
       <r>    2.7839    1.0000 </r>
       <r>    6.2869    0.0000 </r>
       <r>    6.2922    0.0000 </r>
       <r>    8.5098    0.0000 </r>
      </set>
      <set comment="kpoint 23">
       <r>  -10.3313    1.0000 </r>
       <r>  -10.2979    1.0000 </r>
       <r>  -10.2432    1.0000 </r>
       <r>  -10.2334    1.0000 </r>
       <r>   -9.5477    1.0000 </r>
       <r>   -9.4827    1.0000 </r>
       <r>   -9.3942    1.0000 </r>
       <r>   -9.3895    1.0000 </r>
       <r>   -9.3739    1.0000 </r>
       <r>   -9.3634    1.0000 </r>
       <r>   -5.8594    1.0000 </r>
       <r>   -5.8513    1.0000 </r>
       <r>   -0.7431    1.0000 </r>
       <r>   -0.7265    1.0000 </r>
       <r>    1.6301    1.0000 </r>
       <r>    1.6585    1.0000 </r>
       <r>    2.0821    1.0000 </r>
       <r>    2.0845    1.0000 </r>
       <r>    6.3746    0.0000 </r>
       <r>    6.3815    0.0000 </r>
       <r>    7.3836    0.0000 </r>
      </set>
      <set comment="kpoint 24">
       <r>  -10.3194    1.0000 </r>
       <r>  -10.2843    1.0000 </r>
       <r>  -10.2548    1.0000 </r>
       <r>  -10.2440    1.0000 </r>
       <r>   -9.5386    1.0000 </r>
       <r>   -9.4660    1.0000 </r>
       <r>   -9.4218    1.0000 </r>
       <r>   -9.4096    1.0000 </r>
       <r>   -9.3648    1.0000 </r>
       <r>   -9.3616    1.0000 </r>
       <r>   -6.0430    1.0000 </r>
       <r>   -6.0331    1.0000 </r>
       <r>   -0.8724    1.0000 </r>
       <r>   -0.8570    1.0000 </r>
       <r>    2.2198    1.0000 </r>
       <r>    2.2509    1.0000 </r>
       <r>    2.6612    1.0000 </r>
       <r>    2.6646    1.0000 </r>
       <r>    6.3390    0.0000 </r>
       <r>    6.3577    0.0000 </r>
       <r>    8.2459    0.0000 </r>
      </set>
      <set comment="kpoint 25">
       <r>  -10.2991    1.0000 </r>
       <r>  -10.2820    1.0000 </r>
       <r>  -10.2581    1.0000 </r>
       <r>  -10.2500    1.0000 </r>
       <r>   -9.5124    1.0000 </r>
       <r>   -9.4782    1.0000 </r>
       <r>   -9.4067    1.0000 </r>
       <r>   -9.4011    1.0000 </r>
       <r>   -9.3802    1.0000 </r>
       <r>   -9.3737    1.0000 </r>
       <r>   -6.6301    1.0000 </r>
       <r>   -6.6236    1.0000 </r>
       <r>    0.5900    1.0000 </r>
       <r>    0.5902    1.0000 </r>
       <r>    2.7522    1.0000 </r>
       <r>    2.7842    1.0000 </r>
       <r>    2.9184    1.0000 </r>
       <r>    2.9243    1.0000 </r>
       <r>    6.5063    0.0000 </r>
       <r>    6.7067    0.0000 </r>
       <r>    7.4323    0.0000 </r>
      </set>
      <set comment="kpoint 26">
       <r>  -10.3224    1.0000 </r>
       <r>  -10.2871    1.0000 </r>
       <r>  -10.2492    1.0000 </r>
       <r>  -10.2392    1.0000 </r>
       <r>   -9.5444    1.0000 </r>
       <r>   -9.4675    1.0000 </r>
       <r>   -9.4098    1.0000 </r>
       <r>   -9.3985    1.0000 </r>
       <r>   -9.3706    1.0000 </r>
       <r>   -9.3688    1.0000 </r>
       <r>   -6.1692    1.0000 </r>
       <r>   -6.1574    1.0000 </r>
       <r>   -0.2850    1.0000 </r>
       <r>   -0.2669    1.0000 </r>
       <r>    1.6993    1.0000 </r>
       <r>    1.7171    1.0000 </r>
       <r>    2.6278    1.0000 </r>
       <r>    2.6579    1.0000 </r>
       <r>    7.2267    0.0000 </r>
       <r>    7.3524    0.0000 </r>
       <r>    7.4987    0.0000 </r>
      </set>
      <set comment="kpoint 27">
       <r>  -10.3414    1.0000 </r>
       <r>  -10.2878    1.0000 </r>
       <r>  -10.2443    1.0000 </r>
       <r>  -10.2296    1.0000 </r>
       <r>   -9.5715    1.0000 </r>
       <r>   -9.4511    1.0000 </r>
       <r>   -9.4186    1.0000 </r>
       <r>   -9.3999    1.0000 </r>
       <r>   -9.3637    1.0000 </r>
       <r>   -9.3606    1.0000 </r>
       <r>   -5.6841    1.0000 </r>
       <r>   -5.6720    1.0000 </r>
       <r>   -1.1231    1.0000 </r>
       <r>   -1.0848    1.0000 </r>
       <r>    1.1970    1.0000 </r>
       <r>    1.2117    1.0000 </r>
       <r>    2.2277    1.0000 </r>
       <r>    2.2569    1.0000 </r>
       <r>    7.2617    0.0000 </r>
       <r>    7.3003    0.0000 </r>
       <r>    8.2618    0.0000 </r>
      </set>
      <set comment="kpoint 28">
       <r>  -10.3414    1.0000 </r>
       <r>  -10.2878    1.0000 </r>
       <r>  -10.2443    1.0000 </r>
       <r>  -10.2296    1.0000 </r>
       <r>   -9.5715    1.0000 </r>
       <r>   -9.4511    1.0000 </r>
       <r>   -9.4186    1.0000 </r>
       <r>   -9.3999    1.0000 </r>
       <r>   -9.3637    1.0000 </r>
       <r>   -9.3606    1.0000 </r>
       <r>   -5.6841    1.0000 </r>
       <r>   -5.6720    1.0000 </r>
       <r>   -1.1231    1.0000 </r>
       <r>   -1.0848    1.0000 </r>
       <r>    1.1970    1.0000 </r>
       <r>    1.2117    1.0000 </r>
       <r>    2.2277    1.0000 </r>
       <r>    2.2569    1.0000 </r>
       <r>    7.2639    0.0000 </r>
       <r>    7.2883    0.0000 </r>
       <r>    8.2564    0.0000 </r>
      </set>
      <set comment="kpoint 29">
       <r>  -10.3477    1.0000 </r>
       <r>  -10.2961    1.0000 </r>
       <r>  -10.2377    1.0000 </r>
       <r>  -10.2267    1.0000 </r>
       <r>   -9.5729    1.0000 </r>
       <r>   -9.4683    1.0000 </r>
       <r>   -9.3942    1.0000 </r>
       <r>   -9.3885    1.0000 </r>
       <r>   -9.3728    1.0000 </r>
       <r>   -9.3568    1.0000 </r>
       <r>   -5.4955    1.0000 </r>
       <r>   -5.4874    1.0000 </r>
       <r>   -1.2094    1.0000 </r>
       <r>   -1.1739    1.0000 </r>
       <r>    1.2561    1.0000 </r>
       <r>    1.2689    1.0000 </r>
       <r>    1.5777    1.0000 </r>
       <r>    1.6022    1.0000 </r>
       <r>    7.0021    0.0000 </r>
       <r>    7.1189    0.0000 </r>
       <r>    7.4482    0.0000 </r>
      </set>
      <set comment="kpoint 30">
       <r>  -10.3542    1.0000 </r>
       <r>  -10.2902    1.0000 </r>
       <r>  -10.2374    1.0000 </r>
       <r>  -10.2223    1.0000 </r>
       <r>   -9.5891    1.0000 </r>
       <r>   -9.4482    1.0000 </r>
       <r>   -9.4069    1.0000 </r>
       <r>   -9.3939    1.0000 </r>
       <r>   -9.3664    1.0000 </r>
       <r>   -9.3585    1.0000 </r>
       <r>   -5.4062    1.0000 </r>
       <r>   -5.3972    1.0000 </r>
       <r>   -1.2807    1.0000 </r>
       <r>   -1.2274    1.0000 </r>
       <r>    0.8310    1.0000 </r>
       <r>    0.8403    1.0000 </r>
       <r>    1.6545    1.0000 </r>
       <r>    1.6810    1.0000 </r>
       <r>    7.4339    0.0000 </r>
       <r>    7.4396    0.0000 </r>
       <r>    8.8468    0.0000 </r>
      </set>
     </set>
    </set>
   </array>
  </eigenvalues>
  <separator name="orbital magnetization" >
   <v name="MAGDIPOLOUT">      0.00000000      0.00000000      0.00000000</v>
  </separator>
  <dos>
   <i name="efermi">      4.17280413 </i>
   <total>
    <array>
     <dimension dim="1">gridpoints</dimension>
     <dimension dim="2">spin</dimension>
     <field>energy</field>
     <field>total</field>
     <field>integrated</field>
     <set>
      <set comment="spin 1">
       <r>   -11.3445     0.0000     0.0000 </r>
       <r>   -11.2719     0.0000     0.0000 </r>
       <r>   -11.1993     0.0000     0.0000 </r>
       <r>   -11.1267     0.0000     0.0000 </r>
       <r>   -11.0540     0.0000     0.0000 </r>
       <r>   -10.9814     0.0000     0.0000 </r>
       <r>   -10.9088     0.0000     0.0000 </r>
       <r>   -10.8362     0.0000     0.0000 </r>
       <r>   -10.7635    -0.0000    -0.0000 </r>
       <r>   -10.6909    -0.0000    -0.0000 </r>
       <r>   -10.6183    -0.0000    -0.0000 </r>
       <r>   -10.5456    -0.0000    -0.0000 </r>
       <r>   -10.4730    -0.0064    -0.0005 </r>
       <r>   -10.4004    -0.3696    -0.0273 </r>
       <r>   -10.3278     6.9511     0.4775 </r>
       <r>   -10.2551    28.9977     2.5836 </r>
       <r>   -10.1825    20.3301     4.0601 </r>
       <r>   -10.1099    -0.8035     4.0017 </r>
       <r>   -10.0372    -0.0239     4.0000 </r>
       <r>    -9.9646    -0.0000     4.0000 </r>
       <r>    -9.8920    -0.0000     4.0000 </r>
       <r>    -9.8194    -0.0000     4.0000 </r>
       <r>    -9.7467    -0.0001     4.0000 </r>
       <r>    -9.6741    -0.0541     3.9961 </r>
       <r>    -9.6015     0.5242     4.0341 </r>
       <r>    -9.5289     8.9890     4.6870 </r>
       <r>    -9.4562    12.7819     5.6153 </r>
       <r>    -9.3836    34.2962     8.1062 </r>
       <r>    -9.3110    27.2080    10.0822 </r>
       <r>    -9.2383    -1.1021    10.0022 </r>
       <r>    -9.1657    -0.0298    10.0000 </r>
       <r>    -9.0931    -0.0000    10.0000 </r>
       <r>    -9.0205    -0.0000    10.0000 </r>
       <r>    -8.9478     0.0000    10.0000 </r>
       <r>    -8.8752     0.0000    10.0000 </r>
       <r>    -8.8026     0.0000    10.0000 </r>
       <r>    -8.7300     0.0000    10.0000 </r>
       <r>    -8.6573     0.0000    10.0000 </r>
       <r>    -8.5847     0.0000    10.0000 </r>
       <r>    -8.5121     0.0000    10.0000 </r>
       <r>    -8.4394     0.0000    10.0000 </r>
       <r>    -8.3668     0.0000    10.0000 </r>
       <r>    -8.2942     0.0000    10.0000 </r>
       <r>    -8.2216     0.0000    10.0000 </r>
       <r>    -8.1489     0.0000    10.0000 </r>
       <r>    -8.0763     0.0000    10.0000 </r>
       <r>    -8.0037     0.0000    10.0000 </r>
       <r>    -7.9310     0.0000    10.0000 </r>
       <r>    -7.8584     0.0000    10.0000 </r>
       <r>    -7.7858    -0.0000    10.0000 </r>
       <r>    -7.7132    -0.0000    10.0000 </r>
       <r>    -7.6405    -0.0000    10.0000 </r>
       <r>    -7.5679    -0.0000    10.0000 </r>
       <r>    -7.4953    -0.0000    10.0000 </r>
       <r>    -7.4227    -0.0004    10.0000 </r>
       <r>    -7.3500     0.0050    10.0003 </r>
       <r>    -7.2774     0.0749    10.0058 </r>
       <r>    -7.2048    -0.0087    10.0051 </r>
       <r>    -7.1321     0.1544    10.0163 </r>
       <r>    -7.0595     0.6832    10.0660 </r>
       <r>    -6.9869     0.3136    10.0887 </r>
       <r>    -6.9143    -0.0209    10.0872 </r>
       <r>    -6.8416     0.0230    10.0889 </r>
       <r>    -6.7690     0.8958    10.1539 </r>
       <r>    -6.6964    -0.0104    10.1532 </r>
       <r>    -6.6238     1.1287    10.2352 </r>
       <r>    -6.5511     1.5128    10.3450 </r>
       <r>    -6.4785    -0.0103    10.3443 </r>
       <r>    -6.4059    -0.0207    10.3428 </r>
       <r>    -6.3332     0.3256    10.3664 </r>
       <r>    -6.2606     0.3735    10.3936 </r>
       <r>    -6.1880     2.0074    10.5394 </r>
       <r>    -6.1154     1.6280    10.6576 </r>
       <r>    -6.0427     0.8675    10.7206 </r>
       <r>    -5.9701     1.7673    10.8490 </r>
       <r>    -5.8975    -0.0584    10.8447 </r>
       <r>    -5.8248     2.0214    10.9915 </r>
       <r>    -5.7522     2.1359    11.1466 </r>
       <r>    -5.6796     2.5357    11.3308 </r>
       <r>    -5.6070     2.0429    11.4792 </r>
       <r>    -5.5343     1.0584    11.5560 </r>
       <r>    -5.4617     3.0317    11.7762 </r>
       <r>    -5.3891     2.0796    11.9273 </r>
       <r>    -5.3165     1.0638    12.0045 </r>
       <r>    -5.2438    -0.0621    12.0000 </r>
       <r>    -5.1712    -0.0002    12.0000 </r>
       <r>    -5.0986    -0.0000    12.0000 </r>
       <r>    -5.0259    -0.0000    12.0000 </r>
       <r>    -4.9533     0.0000    12.0000 </r>
       <r>    -4.8807     0.0000    12.0000 </r>
       <r>    -4.8081     0.0000    12.0000 </r>
       <r>    -4.7354     0.0000    12.0000 </r>
       <r>    -4.6628     0.0000    12.0000 </r>
       <r>    -4.5902     0.0000    12.0000 </r>
       <r>    -4.5176     0.0000    12.0000 </r>
       <r>    -4.4449     0.0000    12.0000 </r>
       <r>    -4.3723     0.0000    12.0000 </r>
       <r>    -4.2997     0.0000    12.0000 </r>
       <r>    -4.2270     0.0000    12.0000 </r>
       <r>    -4.1544     0.0000    12.0000 </r>
       <r>    -4.0818     0.0000    12.0000 </r>
       <r>    -4.0092     0.0000    12.0000 </r>
       <r>    -3.9365     0.0000    12.0000 </r>
       <r>    -3.8639     0.0000    12.0000 </r>
       <r>    -3.7913     0.0000    12.0000 </r>
       <r>    -3.7186     0.0000    12.0000 </r>
       <r>    -3.6460     0.0000    12.0000 </r>
       <r>    -3.5734     0.0000    12.0000 </r>
       <r>    -3.5008     0.0000    12.0000 </r>
       <r>    -3.4281     0.0000    12.0000 </r>
       <r>    -3.3555     0.0000    12.0000 </r>
       <r>    -3.2829     0.0000    12.0000 </r>
       <r>    -3.2103     0.0000    12.0000 </r>
       <r>    -3.1376     0.0000    12.0000 </r>
       <r>    -3.0650     0.0000    12.0000 </r>
       <r>    -2.9924     0.0000    12.0000 </r>
       <r>    -2.9197     0.0000    12.0000 </r>
       <r>    -2.8471     0.0000    12.0000 </r>
       <r>    -2.7745     0.0000    12.0000 </r>
       <r>    -2.7019     0.0000    12.0000 </r>
       <r>    -2.6292     0.0000    12.0000 </r>
       <r>    -2.5566     0.0000    12.0000 </r>
       <r>    -2.4840     0.0000    12.0000 </r>
       <r>    -2.4114     0.0000    12.0000 </r>
       <r>    -2.3387     0.0000    12.0000 </r>
       <r>    -2.2661     0.0000    12.0000 </r>
       <r>    -2.1935     0.0000    12.0000 </r>
       <r>    -2.1208     0.0000    12.0000 </r>
       <r>    -2.0482     0.0000    12.0000 </r>
       <r>    -1.9756     0.0000    12.0000 </r>
       <r>    -1.9030     0.0000    12.0000 </r>
       <r>    -1.8303    -0.0000    12.0000 </r>
       <r>    -1.7577    -0.0000    12.0000 </r>
       <r>    -1.6851    -0.0000    12.0000 </r>
       <r>    -1.6124    -0.0000    12.0000 </r>
       <r>    -1.5398    -0.0000    12.0000 </r>
       <r>    -1.4672    -0.0149    11.9989 </r>
       <r>    -1.3946     0.1606    12.0106 </r>
       <r>    -1.3219     2.0095    12.1565 </r>
       <r>    -1.2493     2.8098    12.3606 </r>
       <r>    -1.1767     4.1095    12.6591 </r>
       <r>    -1.1041     2.6879    12.8543 </r>
       <r>    -1.0314     1.9516    12.9960 </r>
       <r>    -0.9588     0.2514    13.0143 </r>
       <r>    -0.8862     0.9940    13.0865 </r>
       <r>    -0.8135     1.5742    13.2008 </r>
       <r>    -0.7409     0.7817    13.2576 </r>
       <r>    -0.6683     1.2106    13.3455 </r>
       <r>    -0.5957    -0.0597    13.3412 </r>
       <r>    -0.5230    -0.0401    13.3382 </r>
       <r>    -0.4504     0.6792    13.3876 </r>
       <r>    -0.3778     1.3321    13.4843 </r>
       <r>    -0.3052     0.1556    13.4956 </r>
       <r>    -0.2325     1.7120    13.6200 </r>
       <r>    -0.1599     0.0200    13.6214 </r>
       <r>    -0.0873    -0.0059    13.6210 </r>
       <r>    -0.0146    -0.0008    13.6209 </r>
       <r>     0.0580    -0.0181    13.6196 </r>
       <r>     0.1306     0.5264    13.6579 </r>
       <r>     0.2032     0.4328    13.6893 </r>
       <r>     0.2759     0.1953    13.7035 </r>
       <r>     0.3485    -0.0116    13.7026 </r>
       <r>     0.4211    -0.0001    13.7026 </r>
       <r>     0.4938    -0.0194    13.7012 </r>
       <r>     0.5664     0.2981    13.7229 </r>
       <r>     0.6390     1.6921    13.8458 </r>
       <r>     0.7116    -0.0435    13.8426 </r>
       <r>     0.7843    -0.0496    13.8390 </r>
       <r>     0.8569     1.5641    13.9526 </r>
       <r>     0.9295     1.5819    14.0675 </r>
       <r>     1.0021     1.8698    14.2033 </r>
       <r>     1.0748     0.8061    14.2618 </r>
       <r>     1.1474    -0.1243    14.2528 </r>
       <r>     1.2200     3.7790    14.5273 </r>
       <r>     1.2927     3.0057    14.7456 </r>
       <r>     1.3653     0.1051    14.7532 </r>
       <r>     1.4379    -0.0142    14.7522 </r>
       <r>     1.5105    -0.0469    14.7488 </r>
       <r>     1.5832     0.7276    14.8016 </r>
       <r>     1.6558     3.1482    15.0302 </r>
       <r>     1.7284     3.8502    15.3099 </r>
       <r>     1.8010     1.7216    15.4349 </r>
       <r>     1.8737     0.2649    15.4541 </r>
       <r>     1.9463     1.6262    15.5723 </r>
       <r>     2.0189     1.7189    15.6971 </r>
       <r>     2.0916     2.2838    15.8630 </r>
       <r>     2.1642     1.2194    15.9515 </r>
       <r>     2.2368     4.4723    16.2763 </r>
       <r>     2.3094     3.6317    16.5401 </r>
       <r>     2.3821     0.4931    16.5759 </r>
       <r>     2.4547     0.1064    16.5836 </r>
       <r>     2.5273    -0.0191    16.5822 </r>
       <r>     2.6000    -0.0326    16.5799 </r>
       <r>     2.6726     4.4365    16.9021 </r>
       <r>     2.7452     1.9451    17.0434 </r>
       <r>     2.8178     3.2134    17.2767 </r>
       <r>     2.8905     0.3691    17.3035 </r>
       <r>     2.9631     2.2976    17.4704 </r>
       <r>     3.0357    -0.0132    17.4695 </r>
       <r>     3.1083     0.0251    17.4713 </r>
       <r>     3.1810     1.3106    17.5665 </r>
       <r>     3.2536     1.9936    17.7113 </r>
       <r>     3.3262     0.3493    17.7366 </r>
       <r>     3.3989     0.2503    17.7548 </r>
       <r>     3.4715     0.9125    17.8211 </r>
       <r>     3.5441    -0.0263    17.8192 </r>
       <r>     3.6167    -0.0252    17.8173 </r>
       <r>     3.6894     1.3137    17.9127 </r>
       <r>     3.7620     0.3358    17.9371 </r>
       <r>     3.8346     0.0604    17.9415 </r>
       <r>     3.9072     0.6036    17.9853 </r>
       <r>     3.9799     0.0451    17.9886 </r>
       <r>     4.0525    -0.0079    17.9880 </r>
       <r>     4.1251     0.0701    17.9931 </r>
       <r>     4.1978     0.0987    18.0003 </r>
       <r>     4.2704     0.0143    18.0013 </r>
       <r>     4.3430     0.0644    18.0060 </r>
       <r>     4.4156    -0.0026    18.0058 </r>
       <r>     4.4883    -0.0001    18.0058 </r>
       <r>     4.5609    -0.0000    18.0058 </r>
       <r>     4.6335    -0.0000    18.0058 </r>
       <r>     4.7062     0.0000    18.0058 </r>
       <r>     4.7788     0.0000    18.0058 </r>
       <r>     4.8514     0.0000    18.0058 </r>
       <r>     4.9240    -0.0000    18.0058 </r>
       <r>     4.9967    -0.0000    18.0058 </r>
       <r>     5.0693    -0.0000    18.0058 </r>
       <r>     5.1419    -0.0000    18.0058 </r>
       <r>     5.2145    -0.0014    18.0057 </r>
       <r>     5.2872    -0.0056    18.0053 </r>
       <r>     5.3598     0.5617    18.0461 </r>
       <r>     5.4324     0.4874    18.0815 </r>
       <r>     5.5051     0.7881    18.1388 </r>
       <r>     5.5777     0.1041    18.1463 </r>
       <r>     5.6503    -0.0075    18.1458 </r>
       <r>     5.7229    -0.0014    18.1457 </r>
       <r>     5.7956     0.0021    18.1458 </r>
       <r>     5.8682     0.4452    18.1782 </r>
       <r>     5.9408     0.0389    18.1810 </r>
       <r>     6.0135    -0.0054    18.1806 </r>
       <r>     6.0861    -0.0096    18.1799 </r>
       <r>     6.1587     0.9601    18.2496 </r>
       <r>     6.2313     0.7778    18.3061 </r>
       <r>     6.3040     2.0985    18.4585 </r>
       <r>     6.3766     4.7743    18.8053 </r>
       <r>     6.4492     1.7763    18.9343 </r>
       <r>     6.5218     1.7075    19.0583 </r>
       <r>     6.5945     1.9545    19.2002 </r>
       <r>     6.6671    -0.0690    19.1952 </r>
       <r>     6.7397     0.5831    19.2376 </r>
       <r>     6.8124     1.0592    19.3145 </r>
       <r>     6.8850     0.0485    19.3180 </r>
       <r>     6.9576    -0.0196    19.3166 </r>
       <r>     7.0302     0.9855    19.3882 </r>
       <r>     7.1029     0.5471    19.4279 </r>
       <r>     7.1755     1.0593    19.5048 </r>
       <r>     7.2481     1.6123    19.6219 </r>
       <r>     7.3207     3.3892    19.8681 </r>
       <r>     7.3934     1.5941    19.9839 </r>
       <r>     7.4660     3.9680    20.2720 </r>
       <r>     7.5386     1.3348    20.3690 </r>
       <r>     7.6113    -0.0195    20.3676 </r>
       <r>     7.6839    -0.0032    20.3673 </r>
       <r>     7.7565    -0.0006    20.3673 </r>
       <r>     7.8291     0.0098    20.3680 </r>
       <r>     7.9018     0.0322    20.3704 </r>
       <r>     7.9744    -0.0073    20.3698 </r>
       <r>     8.0470     0.1070    20.3776 </r>
       <r>     8.1197     0.2096    20.3928 </r>
       <r>     8.1923    -0.0906    20.3862 </r>
       <r>     8.2649     2.4402    20.5635 </r>
       <r>     8.3375     1.0972    20.6432 </r>
       <r>     8.4102    -0.0725    20.6379 </r>
       <r>     8.4828     0.1220    20.6467 </r>
       <r>     8.5554     0.8567    20.7090 </r>
       <r>     8.6280     0.1256    20.7181 </r>
       <r>     8.7007     0.3560    20.7440 </r>
       <r>     8.7733     0.3249    20.7676 </r>
       <r>     8.8459     1.1738    20.8528 </r>
       <r>     8.9186     0.8917    20.9176 </r>
       <r>     8.9912     0.1843    20.9309 </r>
       <r>     9.0638    -0.0227    20.9293 </r>
       <r>     9.1364     0.1738    20.9419 </r>
       <r>     9.2091     0.3349    20.9662 </r>
       <r>     9.2817    -0.0168    20.9650 </r>
       <r>     9.3543    -0.0043    20.9647 </r>
       <r>     9.4269     0.0594    20.9690 </r>
       <r>     9.4996     0.4338    21.0005 </r>
       <r>     9.5722    -0.0065    21.0001 </r>
       <r>     9.6448    -0.0009    21.0000 </r>
       <r>     9.7175    -0.0000    21.0000 </r>
       <r>     9.7901    -0.0000    21.0000 </r>
       <r>     9.8627     0.0000    21.0000 </r>
       <r>     9.9353     0.0000    21.0000 </r>
       <r>    10.0080     0.0000    21.0000 </r>
       <r>    10.0806     0.0000    21.0000 </r>
       <r>    10.1532     0.0000    21.0000 </r>
       <r>    10.2259     0.0000    21.0000 </r>
       <r>    10.2985     0.0000    21.0000 </r>
       <r>    10.3711     0.0000    21.0000 </r>
       <r>    10.4437     0.0000    21.0000 </r>
      </set>
      <set comment="spin 2">
       <r>   -11.3445     0.0000     0.0000 </r>
       <r>   -11.2719     0.0000     0.0000 </r>
       <r>   -11.1993     0.0000     0.0000 </r>
       <r>   -11.1267     0.0000     0.0000 </r>
       <r>   -11.0540     0.0000     0.0000 </r>
       <r>   -10.9814     0.0000     0.0000 </r>
       <r>   -10.9088     0.0000     0.0000 </r>
       <r>   -10.8362     0.0000     0.0000 </r>
       <r>   -10.7635     0.0000     0.0000 </r>
       <r>   -10.6909     0.0000     0.0000 </r>
       <r>   -10.6183     0.0000     0.0000 </r>
       <r>   -10.5456     0.0000     0.0000 </r>
       <r>   -10.4730     0.0000     0.0000 </r>
       <r>   -10.4004     0.0000     0.0000 </r>
       <r>   -10.3278     0.0000     0.0000 </r>
       <r>   -10.2551     0.0000     0.0000 </r>
       <r>   -10.1825     0.0000     0.0000 </r>
       <r>   -10.1099     0.0000     0.0000 </r>
       <r>   -10.0372     0.0000     0.0000 </r>
       <r>    -9.9646     0.0000     0.0000 </r>
       <r>    -9.8920     0.0000     0.0000 </r>
       <r>    -9.8194     0.0000     0.0000 </r>
       <r>    -9.7467     0.0000     0.0000 </r>
       <r>    -9.6741     0.0000     0.0000 </r>
       <r>    -9.6015     0.0000     0.0000 </r>
       <r>    -9.5289     0.0000     0.0000 </r>
       <r>    -9.4562     0.0000     0.0000 </r>
       <r>    -9.3836     0.0000     0.0000 </r>
       <r>    -9.3110     0.0000     0.0000 </r>
       <r>    -9.2383     0.0000     0.0000 </r>
       <r>    -9.1657     0.0000     0.0000 </r>
       <r>    -9.0931     0.0000     0.0000 </r>
       <r>    -9.0205     0.0000     0.0000 </r>
       <r>    -8.9478     0.0000     0.0000 </r>
       <r>    -8.8752     0.0000     0.0000 </r>
       <r>    -8.8026     0.0000     0.0000 </r>
       <r>    -8.7300     0.0000     0.0000 </r>
       <r>    -8.6573     0.0000     0.0000 </r>
       <r>    -8.5847     0.0000     0.0000 </r>
       <r>    -8.5121     0.0000     0.0000 </r>
       <r>    -8.4394     0.0000     0.0000 </r>
       <r>    -8.3668     0.0000     0.0000 </r>
       <r>    -8.2942     0.0000     0.0000 </r>
       <r>    -8.2216     0.0000     0.0000 </r>
       <r>    -8.1489     0.0000     0.0000 </r>
       <r>    -8.0763     0.0000     0.0000 </r>
       <r>    -8.0037     0.0000     0.0000 </r>
       <r>    -7.9310     0.0000     0.0000 </r>
       <r>    -7.8584     0.0000     0.0000 </r>
       <r>    -7.7858     0.0000     0.0000 </r>
       <r>    -7.7132     0.0000     0.0000 </r>
       <r>    -7.6405     0.0000     0.0000 </r>
       <r>    -7.5679     0.0000     0.0000 </r>
       <r>    -7.4953     0.0000     0.0000 </r>
       <r>    -7.4227     0.0000     0.0000 </r>
       <r>    -7.3500     0.0000     0.0000 </r>
       <r>    -7.2774     0.0000     0.0000 </r>
       <r>    -7.2048     0.0000     0.0000 </r>
       <r>    -7.1321     0.0000     0.0000 </r>
       <r>    -7.0595     0.0000     0.0000 </r>
       <r>    -6.9869     0.0000     0.0000 </r>
       <r>    -6.9143     0.0000     0.0000 </r>
       <r>    -6.8416     0.0000     0.0000 </r>
       <r>    -6.7690     0.0000     0.0000 </r>
       <r>    -6.6964     0.0000     0.0000 </r>
       <r>    -6.6238     0.0000     0.0000 </r>
       <r>    -6.5511     0.0000     0.0000 </r>
       <r>    -6.4785     0.0000     0.0000 </r>
       <r>    -6.4059     0.0000     0.0000 </r>
       <r>    -6.3332     0.0000     0.0000 </r>
       <r>    -6.2606     0.0000     0.0000 </r>
       <r>    -6.1880     0.0000     0.0000 </r>
       <r>    -6.1154     0.0000     0.0000 </r>
       <r>    -6.0427     0.0000     0.0000 </r>
       <r>    -5.9701     0.0000     0.0000 </r>
       <r>    -5.8975     0.0000     0.0000 </r>
       <r>    -5.8248     0.0000     0.0000 </r>
       <r>    -5.7522     0.0000     0.0000 </r>
       <r>    -5.6796     0.0000     0.0000 </r>
       <r>    -5.6070     0.0000     0.0000 </r>
       <r>    -5.5343     0.0000     0.0000 </r>
       <r>    -5.4617     0.0000     0.0000 </r>
       <r>    -5.3891     0.0000     0.0000 </r>
       <r>    -5.3165     0.0000     0.0000 </r>
       <r>    -5.2438     0.0000     0.0000 </r>
       <r>    -5.1712     0.0000     0.0000 </r>
       <r>    -5.0986     0.0000     0.0000 </r>
       <r>    -5.0259     0.0000     0.0000 </r>
       <r>    -4.9533     0.0000     0.0000 </r>
       <r>    -4.8807     0.0000     0.0000 </r>
       <r>    -4.8081     0.0000     0.0000 </r>
       <r>    -4.7354     0.0000     0.0000 </r>
       <r>    -4.6628     0.0000     0.0000 </r>
       <r>    -4.5902     0.0000     0.0000 </r>
       <r>    -4.5176     0.0000     0.0000 </r>
       <r>    -4.4449     0.0000     0.0000 </r>
       <r>    -4.3723     0.0000     0.0000 </r>
       <r>    -4.2997     0.0000     0.0000 </r>
       <r>    -4.2270     0.0000     0.0000 </r>
       <r>    -4.1544     0.0000     0.0000 </r>
       <r>    -4.0818     0.0000     0.0000 </r>
       <r>    -4.0092     0.0000     0.0000 </r>
       <r>    -3.9365     0.0000     0.0000 </r>
       <r>    -3.8639     0.0000     0.0000 </r>
       <r>    -3.7913     0.0000     0.0000 </r>
       <r>    -3.7186     0.0000     0.0000 </r>
       <r>    -3.6460     0.0000     0.0000 </r>
       <r>    -3.5734     0.0000     0.0000 </r>
       <r>    -3.5008     0.0000     0.0000 </r>
       <r>    -3.4281     0.0000     0.0000 </r>
       <r>    -3.3555     0.0000     0.0000 </r>
       <r>    -3.2829     0.0000     0.0000 </r>
       <r>    -3.2103     0.0000     0.0000 </r>
       <r>    -3.1376     0.0000     0.0000 </r>
       <r>    -3.0650     0.0000     0.0000 </r>
       <r>    -2.9924     0.0000     0.0000 </r>
       <r>    -2.9197     0.0000     0.0000 </r>
       <r>    -2.8471     0.0000     0.0000 </r>
       <r>    -2.7745     0.0000     0.0000 </r>
       <r>    -2.7019     0.0000     0.0000 </r>
       <r>    -2.6292     0.0000     0.0000 </r>
       <r>    -2.5566     0.0000     0.0000 </r>
       <r>    -2.4840     0.0000     0.0000 </r>
       <r>    -2.4114     0.0000     0.0000 </r>
       <r>    -2.3387     0.0000     0.0000 </r>
       <r>    -2.2661     0.0000     0.0000 </r>
       <r>    -2.1935     0.0000     0.0000 </r>
       <r>    -2.1208     0.0000     0.0000 </r>
       <r>    -2.0482     0.0000     0.0000 </r>
       <r>    -1.9756     0.0000     0.0000 </r>
       <r>    -1.9030     0.0000     0.0000 </r>
       <r>    -1.8303     0.0000     0.0000 </r>
       <r>    -1.7577     0.0000     0.0000 </r>
       <r>    -1.6851     0.0000     0.0000 </r>
       <r>    -1.6124     0.0000     0.0000 </r>
       <r>    -1.5398     0.0000     0.0000 </r>
       <r>    -1.4672     0.0000     0.0000 </r>
       <r>    -1.3946     0.0000     0.0000 </r>
       <r>    -1.3219     0.0000     0.0000 </r>
       <r>    -1.2493     0.0000     0.0000 </r>
       <r>    -1.1767     0.0000     0.0000 </r>
       <r>    -1.1041     0.0000     0.0000 </r>
       <r>    -1.0314     0.0000     0.0000 </r>
       <r>    -0.9588     0.0000     0.0000 </r>
       <r>    -0.8862     0.0000     0.0000 </r>
       <r>    -0.8135     0.0000     0.0000 </r>
       <r>    -0.7409     0.0000     0.0000 </r>
       <r>    -0.6683     0.0000     0.0000 </r>
       <r>    -0.5957     0.0000     0.0000 </r>
       <r>    -0.5230     0.0000     0.0000 </r>
       <r>    -0.4504     0.0000     0.0000 </r>
       <r>    -0.3778     0.0000     0.0000 </r>
       <r>    -0.3052     0.0000     0.0000 </r>
       <r>    -0.2325     0.0000     0.0000 </r>
       <r>    -0.1599     0.0000     0.0000 </r>
       <r>    -0.0873     0.0000     0.0000 </r>
       <r>    -0.0146     0.0000     0.0000 </r>
       <r>     0.0580     0.0000     0.0000 </r>
       <r>     0.1306     0.0000     0.0000 </r>
       <r>     0.2032     0.0000     0.0000 </r>
       <r>     0.2759     0.0000     0.0000 </r>
       <r>     0.3485     0.0000     0.0000 </r>
       <r>     0.4211     0.0000     0.0000 </r>
       <r>     0.4938     0.0000     0.0000 </r>
       <r>     0.5664     0.0000     0.0000 </r>
       <r>     0.6390     0.0000     0.0000 </r>
       <r>     0.7116     0.0000     0.0000 </r>
       <r>     0.7843     0.0000     0.0000 </r>
       <r>     0.8569     0.0000     0.0000 </r>
       <r>     0.9295     0.0000     0.0000 </r>
       <r>     1.0021     0.0000     0.0000 </r>
       <r>     1.0748     0.0000     0.0000 </r>
       <r>     1.1474     0.0000     0.0000 </r>
       <r>     1.2200     0.0000     0.0000 </r>
       <r>     1.2927     0.0000     0.0000 </r>
       <r>     1.3653     0.0000     0.0000 </r>
       <r>     1.4379     0.0000     0.0000 </r>
       <r>     1.5105     0.0000     0.0000 </r>
       <r>     1.5832     0.0000     0.0000 </r>
       <r>     1.6558     0.0000     0.0000 </r>
       <r>     1.7284     0.0000     0.0000 </r>
       <r>     1.8010     0.0000     0.0000 </r>
       <r>     1.8737     0.0000     0.0000 </r>
       <r>     1.9463     0.0000     0.0000 </r>
       <r>     2.0189     0.0000     0.0000 </r>
       <r>     2.0916     0.0000     0.0000 </r>
       <r>     2.1642     0.0000     0.0000 </r>
       <r>     2.2368     0.0000     0.0000 </r>
       <r>     2.3094     0.0000     0.0000 </r>
       <r>     2.3821     0.0000     0.0000 </r>
       <r>     2.4547     0.0000     0.0000 </r>
       <r>     2.5273     0.0000     0.0000 </r>
       <r>     2.6000     0.0000     0.0000 </r>
       <r>     2.6726     0.0000     0.0000 </r>
       <r>     2.7452     0.0000     0.0000 </r>
       <r>     2.8178     0.0000     0.0000 </r>
       <r>     2.8905     0.0000     0.0000 </r>
       <r>     2.9631     0.0000     0.0000 </r>
       <r>     3.0357     0.0000     0.0000 </r>
       <r>     3.1083     0.0000     0.0000 </r>
       <r>     3.1810     0.0000     0.0000 </r>
       <r>     3.2536     0.0000     0.0000 </r>
       <r>     3.3262     0.0000     0.0000 </r>
       <r>     3.3989     0.0000     0.0000 </r>
       <r>     3.4715     0.0000     0.0000 </r>
       <r>     3.5441     0.0000     0.0000 </r>
       <r>     3.6167     0.0000     0.0000 </r>
       <r>     3.6894     0.0000     0.0000 </r>
       <r>     3.7620     0.0000     0.0000 </r>
       <r>     3.8346     0.0000     0.0000 </r>
       <r>     3.9072     0.0000     0.0000 </r>
       <r>     3.9799     0.0000     0.0000 </r>
       <r>     4.0525     0.0000     0.0000 </r>
       <r>     4.1251     0.0000     0.0000 </r>
       <r>     4.1978     0.0000     0.0000 </r>
       <r>     4.2704     0.0000     0.0000 </r>
       <r>     4.3430     0.0000     0.0000 </r>
       <r>     4.4156     0.0000     0.0000 </r>
       <r>     4.4883     0.0000     0.0000 </r>
       <r>     4.5609     0.0000     0.0000 </r>
       <r>     4.6335     0.0000     0.0000 </r>
       <r>     4.7062     0.0000     0.0000 </r>
       <r>     4.7788     0.0000     0.0000 </r>
       <r>     4.8514     0.0000     0.0000 </r>
       <r>     4.9240     0.0000     0.0000 </r>
       <r>     4.9967     0.0000     0.0000 </r>
       <r>     5.0693     0.0000     0.0000 </r>
       <r>     5.1419     0.0000     0.0000 </r>
       <r>     5.2145     0.0000     0.0000 </r>
       <r>     5.2872     0.0000     0.0000 </r>
       <r>     5.3598     0.0000     0.0000 </r>
       <r>     5.4324     0.0000     0.0000 </r>
       <r>     5.5051     0.0000     0.0000 </r>
       <r>     5.5777     0.0000     0.0000 </r>
       <r>     5.6503     0.0000     0.0000 </r>
       <r>     5.7229     0.0000     0.0000 </r>
       <r>     5.7956     0.0000     0.0000 </r>
       <r>     5.8682     0.0000     0.0000 </r>
       <r>     5.9408     0.0000     0.0000 </r>
       <r>     6.0135     0.0000     0.0000 </r>
       <r>     6.0861     0.0000     0.0000 </r>
       <r>     6.1587     0.0000     0.0000 </r>
       <r>     6.2313     0.0000     0.0000 </r>
       <r>     6.3040     0.0000     0.0000 </r>
       <r>     6.3766     0.0000     0.0000 </r>
       <r>     6.4492     0.0000     0.0000 </r>
       <r>     6.5218     0.0000     0.0000 </r>
       <r>     6.5945     0.0000     0.0000 </r>
       <r>     6.6671     0.0000     0.0000 </r>
       <r>     6.7397     0.0000     0.0000 </r>
       <r>     6.8124     0.0000     0.0000 </r>
       <r>     6.8850     0.0000     0.0000 </r>
       <r>     6.9576     0.0000     0.0000 </r>
       <r>     7.0302     0.0000     0.0000 </r>
[...]
       </set>
       <set comment="band 21">
        <r>  0.0238  0.0059  0.0587  0.0019  0.0079  0.0028  0.0009 -0.0000  0.0002 </r>
        <r> -0.0007  0.0066  0.0087  0.0210  0.0087 -0.0002  0.0028 -0.0000 -0.0000 </r>
       </set>
      </set>
      <set comment="kpoint 27">
       <set comment="band 1">
        <r>  0.0000  0.0000  0.0003  0.0001  0.1268  0.0641 -0.0477 -0.0048  0.0698 </r>
        <r>  0.0062 -0.0000  0.0002  0.0000 -0.0000 -0.0000 -0.0000  0.0000 -0.0000 </r>
       </set>
       <set comment="band 2">
        <r> -0.0000  0.0001 -0.0001 -0.0000 -0.1725 -0.0416 -0.0567  0.2027 -0.1161 </r>
        <r> -0.0018  0.0001 -0.0005  0.0000 -0.0000  0.0001 -0.0000 -0.0000 -0.0000 </r>
       </set>
       <set comment="band 3">
        <r>  0.0000 -0.0000  0.0000  0.0000  0.1136  0.1444 -0.1012 -0.0077  0.1055 </r>
        <r> -0.0000  0.0009  0.0002  0.0002 -0.0000 -0.0000  0.0000  0.0001  0.0000 </r>
       </set>
       <set comment="band 4">
        <r> -0.0000 -0.0001 -0.0000 -0.0000 -0.0823 -0.1624  0.2373 -0.1969 -0.0589 </r>
        <r> -0.0003  0.0000 -0.0002 -0.0006 -0.0000 -0.0002  0.0000 -0.0001 -0.0000 </r>
       </set>
       <set comment="band 5">
        <r> -0.0002 -0.0002 -0.0002 -0.0003  0.0764 -0.0849 -0.0295 -0.0781 -0.0379 </r>
        <r> -0.0092 -0.0001  0.0005  0.0000  0.0000 -0.0000  0.0000 -0.0000  0.0000 </r>
       </set>
       <set comment="band 6">
        <r>  0.0001  0.0001 -0.0000  0.0001 -0.0360 -0.0026 -0.1478  0.0806  0.0546 </r>
        <r>  0.0030 -0.0002 -0.0004  0.0000  0.0000  0.0001  0.0000 -0.0000 -0.0000 </r>
       </set>
       <set comment="band 7">
        <r>  0.0000 -0.0000 -0.0000 -0.0000 -0.1174  0.0612 -0.0486 -0.1097  0.0858 </r>
        <r>  0.0001 -0.0011 -0.0002  0.0010 -0.0000  0.0001 -0.0001 -0.0002  0.0000 </r>
       </set>
       <set comment="band 8">
        <r> -0.0000  0.0001 -0.0000 -0.0000 -0.0131 -0.0729  0.1140  0.1144 -0.1724 </r>
        <r> -0.0001  0.0002  0.0006 -0.0005  0.0000  0.0000 -0.0000 -0.0000 -0.0000 </r>
       </set>
       <set comment="band 9">
        <r> -0.0000  0.0000  0.0000 -0.0000  0.1169  0.0456 -0.1265  0.0291  0.2364 </r>
        <r> -0.0001  0.0003 -0.0000 -0.0001  0.0000 -0.0000  0.0000  0.0002 -0.0000 </r>
       </set>
       <set comment="band 10">
        <r>  0.0000 -0.0000 -0.0000  0.0000 -0.0124  0.0511  0.2070 -0.0279 -0.1666 </r>
        <r> -0.0000 -0.0001 -0.0002  0.0001  0.0000  0.0000  0.0000  0.0000  0.0000 </r>
       </set>
       <set comment="band 11">
        <r>  0.0151  0.0026  0.0119  0.0063  0.0127  0.0083  0.0000  0.0034  0.0001 </r>
        <r>  0.1897  0.0001  0.0006  0.0001  0.0000  0.0000  0.0000  0.0000  0.0000 </r>
       </set>
       <set comment="band 12">
        <r> -0.0150 -0.0026 -0.0117 -0.0063 -0.0126 -0.0102 -0.0003 -0.0052 -0.0002 </r>
        <r> -0.1870 -0.0001 -0.0006 -0.0001 -0.0000 -0.0000 -0.0000 -0.0000 -0.0000 </r>
       </set>
       <set comment="band 13">
        <r>  0.1563  0.0043  0.0042  0.0141  0.0014  0.0002  0.0002  0.0004  0.0000 </r>
        <r>  0.0130  0.0176  0.0357  0.0224  0.0009  0.0004  0.0000  0.0002  0.0000 </r>
       </set>
       <set comment="band 14">
        <r> -0.1584 -0.0045 -0.0045 -0.0135 -0.0015 -0.0002 -0.0002 -0.0003 -0.0001 </r>
        <r> -0.0126 -0.0161 -0.0358 -0.0222 -0.0009 -0.0005 -0.0000 -0.0002 -0.0000 </r>
       </set>
       <set comment="band 15">
        <r>  0.0148  0.0481  0.0215  0.0364  0.0008  0.0025  0.0015  0.0002  0.0012 </r>
        <r>  0.0037  0.0158  0.0243  0.0715  0.0002  0.0004  0.0002  0.0001  0.0002 </r>
       </set>
       <set comment="band 16">
        <r> -0.0155 -0.0351 -0.0279 -0.0406 -0.0008 -0.0028 -0.0012  0.0000 -0.0014 </r>
        <r> -0.0039 -0.0305 -0.0209 -0.0690 -0.0003 -0.0004 -0.0002 -0.0000 -0.0002 </r>
       </set>
       <set comment="band 17">
        <r> -0.0011 -0.0567 -0.0226 -0.0205 -0.0011 -0.0004 -0.0021 -0.0035 -0.0003 </r>
        <r> -0.0009 -0.0703 -0.0321 -0.0177 -0.0001 -0.0001 -0.0004 -0.0005 -0.0001 </r>
       </set>
       <set comment="band 18">
        <r>  0.0033  0.0421  0.0307  0.0255  0.0010  0.0003  0.0017  0.0038  0.0003 </r>
        <r>  0.0003  0.0865  0.0278  0.0133  0.0002  0.0001  0.0004  0.0003  0.0001 </r>
       </set>
       <set comment="band 19">
        <r> -0.0214  0.0000 -0.0130 -0.0016 -0.0022 -0.0008 -0.0011 -0.0001 -0.0001 </r>
        <r> -0.0054 -0.0012 -0.0136 -0.0084 -0.0023  0.0001 -0.0008 -0.0000  0.0001 </r>
       </set>
       <set comment="band 20">
        <r>  0.0197  0.0000  0.0026  0.0018  0.0007  0.0008  0.0003  0.0000  0.0005 </r>
        <r>  0.0044 -0.0002  0.0089  0.0115  0.0010  0.0008 -0.0001  0.0001  0.0002 </r>
       </set>
       <set comment="band 21">
        <r>  0.0077  0.0042 -0.0053  0.0084  0.0005  0.0018  0.0006 -0.0000  0.0010 </r>
        <r> -0.0007  0.0010  0.0051  0.0057  0.0005  0.0017 -0.0001 -0.0000  0.0007 </r>
       </set>
      </set>
      <set comment="kpoint 28">
       <set comment="band 1">
        <r>  0.0000  0.0000  0.0002  0.0002  0.0599  0.0738 -0.0449  0.0126  0.0350 </r>
        <r>  0.0048  0.0000  0.0000  0.0001 -0.0000  0.0000 -0.0000 -0.0000 -0.0000 </r>
       </set>
       <set comment="band 2">
        <r> -0.0000  0.0001 -0.0001 -0.0001 -0.0746 -0.0672 -0.0167  0.1064 -0.0515 </r>
        <r> -0.0019 -0.0001 -0.0001 -0.0001  0.0000  0.0000 -0.0000 -0.0000 -0.0000 </r>
       </set>
       <set comment="band 3">
        <r>  0.0000 -0.0000  0.0000  0.0000  0.1257  0.0700 -0.0424 -0.0415  0.1141 </r>
        <r>  0.0001  0.0004  0.0003  0.0001 -0.0000 -0.0000  0.0000  0.0001  0.0000 </r>
       </set>
       <set comment="band 4">
        <r> -0.0000 -0.0000 -0.0000 -0.0000 -0.1209 -0.0757  0.1247 -0.0803 -0.1001 </r>
        <r> -0.0001 -0.0001 -0.0004 -0.0000 -0.0000 -0.0001 -0.0000 -0.0001 -0.0000 </r>
       </set>
       <set comment="band 5">
        <r> -0.0001 -0.0002 -0.0001 -0.0002  0.0463 -0.0662 -0.0166 -0.0580 -0.0155 </r>
        <r> -0.0069  0.0001  0.0002 -0.0002  0.0000 -0.0000  0.0000  0.0000  0.0000 </r>
       </set>
       <set comment="band 6">
        <r>  0.0001 -0.0000  0.0000  0.0001  0.0105  0.0535 -0.0973 -0.0233  0.0923 </r>
        <r>  0.0022  0.0001 -0.0000  0.0002 -0.0000  0.0000 -0.0000 -0.0000  0.0000 </r>
       </set>
       <set comment="band 7">
        <r>  0.0000  0.0000 -0.0001 -0.0000 -0.1208  0.0058 -0.0047  0.0242 -0.0383 </r>
        <r>  0.0002 -0.0008 -0.0002  0.0004  0.0000  0.0001 -0.0000 -0.0001 -0.0000 </r>
       </set>
       <set comment="band 8">
        <r> -0.0000  0.0001 -0.0000 -0.0000 -0.0081 -0.0449  0.0162  0.1128 -0.1183 </r>
        <r>  0.0001  0.0000  0.0004 -0.0003  0.0000  0.0000  0.0000 -0.0000 -0.0000 </r>
       </set>
       <set comment="band 9">
        <r>  0.0000 -0.0000  0.0000  0.0000  0.1042  0.0746 -0.0483 -0.0254  0.1789 </r>
        <r>  0.0000  0.0001  0.0000 -0.0001  0.0000  0.0001  0.0000  0.0001  0.0000 </r>
       </set>
       <set comment="band 10">
        <r> -0.0000 -0.0000 -0.0000 -0.0000 -0.0223 -0.0225  0.1302 -0.0264 -0.0965 </r>
        <r> -0.0000  0.0002 -0.0002 -0.0001 -0.0000 -0.0001  0.0000  0.0000  0.0000 </r>
       </set>
       <set comment="band 11">
        <r>  0.0099  0.0017  0.0042  0.0077  0.0058  0.0081 -0.0001  0.0021  0.0001 </r>
        <r>  0.1242  0.0001  0.0000  0.0004  0.0000  0.0000  0.0000  0.0000  0.0000 </r>
       </set>
       <set comment="band 12">
        <r> -0.0098 -0.0017 -0.0041 -0.0077 -0.0057 -0.0093 -0.0001 -0.0033 -0.0001 </r>
        <r> -0.1224 -0.0001 -0.0000 -0.0005 -0.0000 -0.0000 -0.0000 -0.0000 -0.0000 </r>
       </set>
       <set comment="band 13">
        <r>  0.0894  0.0024  0.0076  0.0031  0.0001  0.0009  0.0001  0.0001  0.0001 </r>
        <r>  0.0074  0.0104  0.0127  0.0204  0.0003  0.0005  0.0000  0.0001  0.0000 </r>
       </set>
       <set comment="band 14">
        <r> -0.0904 -0.0031 -0.0078 -0.0022 -0.0001 -0.0008 -0.0001 -0.0002 -0.0002 </r>
        <r> -0.0072 -0.0089 -0.0126 -0.0210 -0.0002 -0.0005 -0.0000 -0.0001 -0.0000 </r>
       </set>
       <set comment="band 15">
        <r>  0.0197  0.0548  0.0420  0.0377  0.0028  0.0015  0.0027  0.0001  0.0009 </r>
        <r>  0.0050  0.0242  0.0802  0.0416  0.0005  0.0004  0.0004  0.0001  0.0002 </r>
       </set>
       <set comment="band 16">
        <r> -0.0206 -0.0457 -0.0470 -0.0405 -0.0030 -0.0016 -0.0025  0.0000 -0.0009 </r>
        <r> -0.0050 -0.0342 -0.0783 -0.0380 -0.0005 -0.0004 -0.0004 -0.0000 -0.0001 </r>
       </set>
       <set comment="band 17">
        <r> -0.0005 -0.0449 -0.0145 -0.0196 -0.0002 -0.0009 -0.0008 -0.0029 -0.0011 </r>
        <r> -0.0004 -0.0563 -0.0145 -0.0263 -0.0000 -0.0001 -0.0002 -0.0004 -0.0002 </r>
       </set>
       <set comment="band 18">
        <r>  0.0016  0.0354  0.0208  0.0226  0.0003  0.0007  0.0006  0.0030  0.0011 </r>
        <r>  0.0001  0.0665  0.0117  0.0220  0.0001  0.0001  0.0002  0.0003  0.0002 </r>
       </set>
       <set comment="band 19">
        <r> -0.0926 -0.0004 -0.0387 -0.0357 -0.0036 -0.0026 -0.0004 -0.0003 -0.0027 </r>
        <r> -0.0361 -0.0012 -0.0410 -0.0457 -0.0042 -0.0033 -0.0004 -0.0002 -0.0014 </r>
       </set>
       <set comment="band 20">
        <r>  0.0834  0.0009  0.0489  0.0325  0.0017  0.0006  0.0001  0.0002  0.0026 </r>
        <r>  0.0407 -0.0038  0.0278  0.0428  0.0040  0.0028 -0.0003  0.0003  0.0012 </r>
       </set>
       <set comment="band 21">
        <r>  0.0175  0.0165  0.0675  0.0991  0.0107  0.0189  0.0080  0.0003  0.0020 </r>
        <r>  0.0149  0.0674  0.0237  0.0081  0.0084  0.0061  0.0103  0.0003  0.0072 </r>
       </set>
      </set>
      <set comment="kpoint 29">
       <set comment="band 1">
        <r> -0.0000 -0.0000  0.0001  0.0000  0.0574  0.0056 -0.0080 -0.0116  0.0292 </r>
        <r>  0.0017 -0.0000  0.0001 -0.0000 -0.0000 -0.0000 -0.0000 -0.0000 -0.0000 </r>
       </set>
       <set comment="band 2">
        <r>  0.0000  0.0001 -0.0001  0.0000 -0.0815 -0.0012 -0.0174  0.0655 -0.0512 </r>
        <r> -0.0004 -0.0001 -0.0003  0.0002 -0.0000  0.0000  0.0000 -0.0000 -0.0000 </r>
       </set>
       <set comment="band 3">
        <r>  0.0000 -0.0000  0.0000  0.0000  0.0294  0.0921 -0.1078  0.0673  0.0272 </r>
        <r> -0.0001  0.0007  0.0001 -0.0002 -0.0000 -0.0000 -0.0000  0.0001  0.0000 </r>
       </set>
       <set comment="band 4">
        <r>  0.0000 -0.0000 -0.0000  0.0000 -0.0097 -0.0935  0.1438 -0.1244 -0.0032 </r>
        <r> -0.0000  0.0001  0.0000 -0.0005  0.0000 -0.0001  0.0000 -0.0000 -0.0000 </r>
       </set>
       <set comment="band 5">
        <r> -0.0000 -0.0001 -0.0001 -0.0001  0.0293 -0.0210 -0.0132 -0.0214 -0.0159 </r>
        <r> -0.0025 -0.0002  0.0003  0.0002  0.0000  0.0000 -0.0000 -0.0000  0.0000 </r>
       </set>
       <set comment="band 6">
        <r>  0.0000  0.0000 -0.0000  0.0000 -0.0370 -0.0030 -0.0334  0.0367 -0.0047 </r>
        <r>  0.0008 -0.0003 -0.0003  0.0001 -0.0000  0.0001  0.0000 -0.0000 -0.0000 </r>
       </set>
       <set comment="band 7">
        <r>  0.0000  0.0000  0.0000 -0.0000 -0.0126 -0.0758 -0.0430  0.0313  0.0040 </r>
        <r>  0.0002  0.0000  0.0001 -0.0002 -0.0000 -0.0000 -0.0000 -0.0001 -0.0000 </r>
       </set>
       <set comment="band 8">
        <r> -0.0000 -0.0000 -0.0000 -0.0000 -0.0001  0.0798  0.0925 -0.1584 -0.0027 </r>
        <r> -0.0003 -0.0002  0.0002  0.0002 -0.0000 -0.0000  0.0000 -0.0000  0.0000 </r>
       </set>
       <set comment="band 9">
        <r> -0.0000  0.0000  0.0000 -0.0000  0.0200 -0.0734 -0.0519  0.1065  0.0981 </r>
        <r> -0.0001  0.0001 -0.0002  0.0001  0.0000  0.0000  0.0000  0.0000 -0.0000 </r>
       </set>
       <set comment="band 10">
        <r>  0.0000  0.0000 -0.0000  0.0000  0.0048  0.0912  0.0385  0.0091 -0.0807 </r>
        <r>  0.0000 -0.0002 -0.0001  0.0002  0.0000  0.0001 -0.0000  0.0000 -0.0000 </r>
       </set>
       <set comment="band 11">
        <r>  0.0023  0.0002  0.0081  0.0015  0.0077  0.0017  0.0002  0.0004  0.0001 </r>
        <r>  0.0759  0.0000  0.0001 -0.0000  0.0000  0.0000  0.0000 -0.0000  0.0000 </r>
       </set>
       <set comment="band 12">
        <r> -0.0023 -0.0002 -0.0080 -0.0015 -0.0076 -0.0023 -0.0002 -0.0010 -0.0001 </r>
        <r> -0.0749 -0.0000 -0.0001 -0.0000 -0.0000 -0.0000 -0.0000 -0.0000  0.0000 </r>
       </set>
       <set comment="band 13">
        <r>  0.0918 -0.0000  0.0004  0.0025  0.0006  0.0001  0.0007  0.0000 -0.0000 </r>
        <r>  0.0040  0.0024  0.0288  0.0056  0.0007  0.0002 -0.0000  0.0000  0.0000 </r>
       </set>
       <set comment="band 14">
        <r> -0.0932  0.0000 -0.0007 -0.0019 -0.0007 -0.0001 -0.0007 -0.0000 -0.0000 </r>
        <r> -0.0040 -0.0015 -0.0291 -0.0054 -0.0007 -0.0002 -0.0000 -0.0000 -0.0000 </r>
       </set>
       <set comment="band 15">
        <r>  0.0017  0.0460  0.0031  0.0155  0.0000  0.0009  0.0009  0.0006  0.0005 </r>
        <r>  0.0001  0.0074  0.0063  0.0483  0.0000  0.0002  0.0000 -0.0000  0.0000 </r>
       </set>
       <set comment="band 16">
        <r> -0.0010 -0.0309 -0.0087 -0.0280  0.0000 -0.0014 -0.0006 -0.0002 -0.0004 </r>
        <r> -0.0002 -0.0325 -0.0042 -0.0426 -0.0000 -0.0001 -0.0001 -0.0000 -0.0000 </r>
       </set>
       <set comment="band 17">
        <r> -0.0001 -0.0138 -0.0012 -0.0076 -0.0001 -0.0000 -0.0003 -0.0004 -0.0000 </r>
        <r> -0.0001 -0.0089 -0.0026 -0.0048 -0.0000 -0.0000 -0.0000 -0.0001 -0.0000 </r>
       </set>
       <set comment="band 18">
        <r>  0.0009 -0.0021  0.0073  0.0201  0.0000  0.0003  0.0000  0.0003 -0.0000 </r>
        <r>  0.0000  0.0345  0.0006 -0.0017  0.0000  0.0000  0.0001  0.0000  0.0000 </r>
       </set>
       <set comment="band 19">
        <r>  0.0100  0.0051  0.2145  0.0292  0.0376  0.0032  0.0008 -0.0000  0.0001 </r>
        <r>  0.0555  0.0547  0.0035  0.0057  0.0044  0.0000  0.0214  0.0000  0.0000 </r>
       </set>
       <set comment="band 20">
        <r>  0.0085 -0.0026 -0.1526 -0.0197 -0.0291 -0.0029  0.0023  0.0001 -0.0001 </r>
        <r> -0.0362 -0.0413  0.0118 -0.0023 -0.0020  0.0000 -0.0151 -0.0000 -0.0000 </r>
       </set>
       <set comment="band 21">
        <r> -0.1011 -0.0109 -0.0014 -0.0027 -0.0000 -0.0002 -0.0138 -0.0003 -0.0003 </r>
        <r> -0.0041  0.0001 -0.0630 -0.0325 -0.0146 -0.0002 -0.0003  0.0000 -0.0000 </r>
       </set>
      </set>
      <set comment="kpoint 30">
       <set comment="band 1">
        <r> -0.0000  0.0000  0.0000  0.0000  0.0000  0.0000 -0.0000  0.0000  0.0000 </r>
        <r>  0.0000  0.0000 -0.0000  0.0000  0.0000 -0.0000  0.0000 -0.0000  0.0000 </r>
       </set>
       <set comment="band 2">
        <r> -0.0000  0.0000 -0.0000 -0.0000 -0.0000 -0.0000  0.0000  0.0000 -0.0000 </r>
        <r> -0.0000  0.0000  0.0000 -0.0000 -0.0000  0.0000 -0.0000  0.0000 -0.0000 </r>
       </set>
       <set comment="band 3">
        <r>  0.0000 -0.0000  0.0000 -0.0000 -0.0000 -0.0001  0.0001 -0.0000 -0.0000 </r>
        <r>  0.0000 -0.0000 -0.0000 -0.0000  0.0000 -0.0000 -0.0000 -0.0000 -0.0000 </r>
       </set>
       <set comment="band 4">
        <r>  0.0000  0.0000  0.0000  0.0000  0.0001  0.0001 -0.0001  0.0000  0.0000 </r>
        <r> -0.0000  0.0000  0.0000  0.0000 -0.0000  0.0000  0.0000  0.0000  0.0000 </r>
       </set>
       <set comment="band 5">
        <r>  0.0000 -0.0000  0.0000  0.0000 -0.0000 -0.0000 -0.0000 -0.0000 -0.0000 </r>
        <r> -0.0000 -0.0000 -0.0000 -0.0000 -0.0000 -0.0000  0.0000 -0.0000  0.0000 </r>
       </set>
       <set comment="band 6">
        <r>  0.0000  0.0000  0.0000  0.0000  0.0000  0.0000  0.0000 -0.0000  0.0000 </r>
        <r>  0.0000 -0.0000  0.0000  0.0000 -0.0000 -0.0000 -0.0000  0.0000  0.0000 </r>
       </set>
       <set comment="band 7">
        <r>  0.0000 -0.0000  0.0000  0.0000  0.0000  0.0000  0.0000  0.0000 -0.0000 </r>
        <r>  0.0000  0.0000 -0.0000  0.0000  0.0000  0.0000 -0.0000  0.0000  0.0000 </r>
       </set>
       <set comment="band 8">
        <r> -0.0000  0.0000 -0.0000  0.0000  0.0000  0.0000 -0.0000  0.0000 -0.0000 </r>
        <r>  0.0000 -0.0000  0.0000 -0.0000  0.0000  0.0000  0.0000  0.0000  0.0000 </r>
       </set>
       <set comment="band 9">
        <r>  0.0000 -0.0000  0.0000 -0.0000  0.0000 -0.0000  0.0001 -0.0000  0.0001 </r>
        <r> -0.0000 -0.0000  0.0000 -0.0000  0.0000  0.0000  0.0000 -0.0000 -0.0000 </r>
       </set>
       <set comment="band 10">
        <r> -0.0000 -0.0000  0.0000  0.0000 -0.0001 -0.0000 -0.0001 -0.0000 -0.0001 </r>
        <r>  0.0000  0.0000 -0.0000  0.0000 -0.0000 -0.0000 -0.0000 -0.0000  0.0000 </r>
       </set>
       <set comment="band 11">
        <r>  0.0000  0.0000  0.0000  0.0000 -0.0000 -0.0000 -0.0000 -0.0000  0.0000 </r>
        <r> -0.0000  0.0000 -0.0000 -0.0000  0.0000  0.0000  0.0000  0.0000 -0.0000 </r>
       </set>
       <set comment="band 12">
        <r>  0.0000  0.0000  0.0000  0.0000  0.0000  0.0000  0.0000  0.0000  0.0000 </r>
        <r>  0.0000 -0.0000  0.0000  0.0000  0.0000  0.0000 -0.0000 -0.0000  0.0000 </r>
       </set>
       <set comment="band 13">
        <r> -0.0000 -0.0000  0.0000  0.0000  0.0000 -0.0000 -0.0000 -0.0000 -0.0000 </r>
        <r> -0.0000  0.0000 -0.0000 -0.0000  0.0000  0.0000 -0.0000 -0.0000 -0.0000 </r>
       </set>
       <set comment="band 14">
        <r>  0.0000  0.0000 -0.0000 -0.0000  0.0000  0.0000 -0.0000 -0.0000 -0.0000 </r>
        <r>  0.0000 -0.0000 -0.0000 -0.0000  0.0000  0.0000  0.0000  0.0000 -0.0000 </r>
       </set>
       <set comment="band 15">
        <r>  0.0000 -0.0000 -0.0000 -0.0000  0.0000  0.0000 -0.0000 -0.0000 -0.0000 </r>
        <r>  0.0000 -0.0000 -0.0000 -0.0000 -0.0000 -0.0000 -0.0000 -0.0000 -0.0000 </r>
       </set>
       <set comment="band 16">
        <r> -0.0000  0.0000  0.0000  0.0000  0.0000 -0.0000  0.0000  0.0000 -0.0000 </r>
        <r>  0.0000  0.0000  0.0000  0.0000 -0.0000 -0.0000  0.0000  0.0000  0.0000 </r>
       </set>
       <set comment="band 17">
        <r>  0.0000 -0.0000  0.0000 -0.0000  0.0000  0.0000  0.0000 -0.0000  0.0000 </r>
        <r>  0.0000 -0.0000  0.0000 -0.0000  0.0000 -0.0000  0.0000 -0.0000 -0.0000 </r>
       </set>
       <set comment="band 18">
        <r>  0.0000  0.0000 -0.0000 -0.0000 -0.0000  0.0000  0.0000  0.0000 -0.0000 </r>
        <r>  0.0000  0.0000  0.0000 -0.0000 -0.0000  0.0000 -0.0000 -0.0000 -0.0000 </r>
       </set>
       <set comment="band 19">
        <r>  0.0587  0.0049  0.0706  0.0084  0.0113  0.0014  0.0060  0.0001  0.0006 </r>
        <r>  0.0219  0.0174  0.0341  0.0206  0.0081  0.0002  0.0066  0.0000  0.0000 </r>
       </set>
       <set comment="band 20">
        <r> -0.0586 -0.0050 -0.0709 -0.0085 -0.0103 -0.0014 -0.0054 -0.0001 -0.0006 </r>
        <r> -0.0221 -0.0176 -0.0341 -0.0206 -0.0081 -0.0002 -0.0066 -0.0000 -0.0000 </r>
       </set>
       <set comment="band 21">
        <r> -0.0177 -0.0001 -0.0215 -0.0112  0.0001  0.0023 -0.0003  0.0000 -0.0006 </r>
        <r> -0.0052  0.0159 -0.0172 -0.0140 -0.0008 -0.0020  0.0000  0.0001  0.0002 </r>
       </set>
      </set>
     </set>
    </set>
   </array>
  </projected>
 </calculation>
 <structure name="finalpos" >
  <crystal>
   <varray name="basis" >
    <v>       0.00000000       3.02920000       3.02920000 </v>
    <v>       3.02920000       0.00000000       3.02920000 </v>
    <v>       3.02920000       3.02920000       0.00000000 </v>
   </varray>
   <i name="volume">     55.59219731 </i>
   <varray name="rec_basis" >
    <v>      -0.16506008       0.16506008       0.16506008 </v>
    <v>       0.16506008      -0.16506008       0.16506008 </v>
    <v>       0.16506008       0.16506008      -0.16506008 </v>
   </varray>
  </crystal>
  <varray name="positions" >
   <v>       0.00000000       0.00000000       0.00000000 </v>
   <v>       0.75000000       0.75000000       0.75000000 </v>
  </varray>
 </structure>
</modeling>
