   2   2   1   0
  0.2779610E+02  0.4283936E-09  0.4283936E-09  0.4283936E-09  0.5000000E-15
  1.000000000000000E-004
  CAR 
 unknown system                          
     10.63803351    -11.47908712  301      4.56475390      1.00000000
    -11.479  0.0000E+00  0.0000E+00
    -11.405  0.0000E+00  0.0000E+00
    -11.332  0.0000E+00  0.0000E+00
    -11.258  0.0000E+00  0.0000E+00
    -11.184  0.0000E+00  0.0000E+00
    -11.110  0.0000E+00  0.0000E+00
    -11.037  0.0000E+00  0.0000E+00
    -10.963  0.0000E+00  0.0000E+00
    -10.889 -0.2831E-29 -0.2087E-30
    -10.816 -0.1312E-19 -0.9673E-21
    -10.742 -0.7682E-12 -0.5664E-13
    -10.668 -0.5893E-06 -0.4345E-07
    -10.594 -0.5451E-02 -0.4019E-03
    -10.521 -0.3696E+00 -0.2765E-01
    -10.447  0.7065E+01  0.4932E+00
    -10.373  0.3005E+02  0.2709E+01
    -10.300  0.1838E+02  0.4064E+01
    -10.226 -0.8538E+00  0.4001E+01
    -10.152 -0.1318E-01  0.4000E+01
    -10.078 -0.1416E-05  0.4000E+01
    -10.005 -0.1876E-11  0.4000E+01
     -9.931 -0.2519E-08  0.4000E+01
     -9.857 -0.1383E-03  0.4000E+01
     -9.783 -0.8692E-01  0.3994E+01
     -9.710  0.1206E+01  0.4082E+01
     -9.636  0.9766E+01  0.4802E+01
     -9.562  0.1495E+02  0.5905E+01
     -9.489  0.4080E+02  0.8913E+01
     -9.415  0.1564E+02  0.1007E+02
     -9.341 -0.8915E+00  0.1000E+02
     -9.267 -0.4331E-02  0.1000E+02
     -9.194 -0.1767E-06  0.1000E+02
     -9.120 -0.8535E-13  0.1000E+02
     -9.046  0.0000E+00  0.1000E+02
     -8.972  0.0000E+00  0.1000E+02
     -8.899  0.0000E+00  0.1000E+02
     -8.825  0.0000E+00  0.1000E+02
     -8.751  0.0000E+00  0.1000E+02
     -8.678  0.0000E+00  0.1000E+02
     -8.604  0.0000E+00  0.1000E+02
     -8.530  0.0000E+00  0.1000E+02
     -8.456  0.0000E+00  0.1000E+02
     -8.383  0.0000E+00  0.1000E+02
     -8.309  0.0000E+00  0.1000E+02
     -8.235  0.0000E+00  0.1000E+02
     -8.162  0.0000E+00  0.1000E+02
     -8.088  0.0000E+00  0.1000E+02
     -8.014  0.0000E+00  0.1000E+02
     -7.940  0.0000E+00  0.1000E+02
     -7.867  0.0000E+00  0.1000E+02
     -7.793 -0.2484E-31  0.1000E+02
     -7.719 -0.1468E-21  0.1000E+02
     -7.645 -0.1036E-13  0.1000E+02
     -7.572 -0.8814E-08  0.1000E+02
     -7.498 -0.7845E-04  0.1000E+02
     -7.424 -0.2316E-02  0.1000E+02
     -7.351  0.6722E-01  0.1000E+02
     -7.277  0.1327E-01  0.1001E+02
     -7.203  0.4946E-02  0.1001E+02
     -7.129  0.6162E+00  0.1005E+02
     -7.056  0.4822E+00  0.1009E+02
     -6.982  0.6235E-02  0.1009E+02
     -6.908 -0.3191E-01  0.1009E+02
     -6.834  0.5816E+00  0.1013E+02
     -6.761  0.4095E+00  0.1016E+02
     -6.687  0.1171E+00  0.1017E+02
     -6.613  0.2089E+01  0.1032E+02
     -6.540  0.3359E+00  0.1035E+02
     -6.466 -0.2553E-01  0.1034E+02
     -6.392  0.3608E-01  0.1035E+02
     -6.318  0.3808E+00  0.1037E+02
     -6.245  0.1131E+01  0.1046E+02
     -6.171  0.1984E+01  0.1060E+02
     -6.097  0.7352E+00  0.1066E+02
     -6.024  0.1964E+01  0.1080E+02
     -5.950  0.5880E+00  0.1085E+02
     -5.876  0.2501E+00  0.1086E+02
     -5.802  0.2668E+01  0.1106E+02
     -5.729  0.1514E+01  0.1117E+02
     -5.655  0.3364E+01  0.1142E+02
     -5.581  0.7019E+00  0.1147E+02
     -5.507  0.1802E+01  0.1161E+02
     -5.434  0.2462E+01  0.1179E+02
     -5.360  0.2289E+01  0.1196E+02
     -5.286  0.6320E+00  0.1200E+02
     -5.213 -0.3711E-01  0.1200E+02
     -5.139 -0.6003E-04  0.1200E+02
     -5.065 -0.9738E-09  0.1200E+02
     -4.991 -0.1054E-15  0.1200E+02
     -4.918  0.0000E+00  0.1200E+02
     -4.844  0.0000E+00  0.1200E+02
     -4.770  0.0000E+00  0.1200E+02
     -4.697  0.0000E+00  0.1200E+02
     -4.623  0.0000E+00  0.1200E+02
     -4.549  0.0000E+00  0.1200E+02
     -4.475  0.0000E+00  0.1200E+02
     -4.402  0.0000E+00  0.1200E+02
     -4.328  0.0000E+00  0.1200E+02
     -4.254  0.0000E+00  0.1200E+02
     -4.180  0.0000E+00  0.1200E+02
     -4.107  0.0000E+00  0.1200E+02
     -4.033  0.0000E+00  0.1200E+02
     -3.959  0.0000E+00  0.1200E+02
     -3.886  0.0000E+00  0.1200E+02
     -3.812  0.0000E+00  0.1200E+02
     -3.738  0.0000E+00  0.1200E+02
     -3.664  0.0000E+00  0.1200E+02
     -3.591  0.0000E+00  0.1200E+02
     -3.517  0.0000E+00  0.1200E+02
     -3.443  0.0000E+00  0.1200E+02
     -3.369  0.0000E+00  0.1200E+02
     -3.296  0.0000E+00  0.1200E+02
     -3.222  0.0000E+00  0.1200E+02
     -3.148  0.0000E+00  0.1200E+02
     -3.075  0.0000E+00  0.1200E+02
     -3.001  0.0000E+00  0.1200E+02
     -2.927  0.0000E+00  0.1200E+02
     -2.853  0.0000E+00  0.1200E+02
     -2.780  0.0000E+00  0.1200E+02
     -2.706  0.0000E+00  0.1200E+02
     -2.632  0.0000E+00  0.1200E+02
     -2.559  0.0000E+00  0.1200E+02
     -2.485  0.0000E+00  0.1200E+02
     -2.411  0.0000E+00  0.1200E+02
     -2.337  0.0000E+00  0.1200E+02
     -2.264  0.0000E+00  0.1200E+02
     -2.190  0.0000E+00  0.1200E+02
     -2.116  0.0000E+00  0.1200E+02
     -2.042  0.0000E+00  0.1200E+02
     -1.969  0.0000E+00  0.1200E+02
     -1.895  0.0000E+00  0.1200E+02
     -1.821  0.0000E+00  0.1200E+02
     -1.748 -0.3480E-30  0.1200E+02
     -1.674 -0.1769E-20  0.1200E+02
     -1.600 -0.1073E-12  0.1200E+02
     -1.526 -0.7870E-07  0.1200E+02
     -1.453 -0.6192E-03  0.1200E+02
     -1.379 -0.2256E-01  0.1200E+02
     -1.305  0.5923E+00  0.1204E+02
     -1.231  0.5483E+00  0.1208E+02
     -1.158  0.3872E+01  0.1237E+02
     -1.084  0.4113E+01  0.1267E+02
     -1.010  0.1657E+01  0.1279E+02
     -0.937  0.2660E+01  0.1299E+02
     -0.863  0.2534E+00  0.1301E+02
     -0.789  0.6323E+00  0.1305E+02
     -0.715  0.8293E+00  0.1312E+02
     -0.642  0.2101E+01  0.1327E+02
     -0.568  0.1012E+01  0.1335E+02
     -0.494 -0.5498E-01  0.1334E+02
     -0.421 -0.1174E-02  0.1334E+02
     -0.347 -0.5760E-01  0.1334E+02
     -0.273  0.1225E+01  0.1343E+02
     -0.199  0.7600E+00  0.1348E+02
     -0.126  0.1595E+01  0.1360E+02
     -0.052  0.2937E+00  0.1362E+02
      0.022 -0.1838E-01  0.1362E+02
      0.096 -0.2136E-04  0.1362E+02
      0.169 -0.7392E-03  0.1362E+02
      0.243 -0.3647E-01  0.1362E+02
      0.317  0.8707E+00  0.1368E+02
      0.390  0.2903E+00  0.1370E+02
      0.464 -0.1644E-01  0.1370E+02
      0.538 -0.2372E-04  0.1370E+02
      0.612 -0.6664E-03  0.1370E+02
      0.685 -0.6578E-01  0.1370E+02
      0.759  0.1325E+01  0.1380E+02
      0.833  0.6772E+00  0.1385E+02
      0.907 -0.3753E-01  0.1384E+02
      0.980 -0.7715E-04  0.1384E+02
      1.054 -0.9468E-04  0.1384E+02
      1.128 -0.2809E-01  0.1384E+02
      1.201  0.4231E+00  0.1387E+02
      1.275  0.2144E+01  0.1403E+02
      1.349  0.2317E+01  0.1420E+02
      1.423  0.8898E+00  0.1427E+02
      1.496 -0.8095E-01  0.1426E+02
      1.570  0.4257E+00  0.1429E+02
      1.644  0.3906E+01  0.1458E+02
      1.717  0.2064E+01  0.1473E+02
      1.791  0.2973E+00  0.1475E+02
      1.865 -0.1980E-01  0.1475E+02
      1.939 -0.1578E-01  0.1475E+02
      2.012  0.1461E+00  0.1476E+02
      2.086  0.3037E+01  0.1499E+02
      2.160  0.4172E+01  0.1529E+02
      2.234  0.1146E+01  0.1538E+02
      2.307  0.2839E+01  0.1559E+02
      2.381  0.1584E+01  0.1570E+02
      2.455  0.1525E+01  0.1582E+02
      2.528  0.3931E-01  0.1582E+02
      2.602  0.1993E+01  0.1597E+02
      2.676  0.2824E+01  0.1617E+02
      2.750  0.4583E+01  0.1651E+02
      2.823  0.6120E+00  0.1656E+02
      2.897  0.3683E+00  0.1658E+02
      2.971 -0.2191E-01  0.1658E+02
      3.044 -0.4670E-01  0.1658E+02
      3.118  0.2730E+01  0.1678E+02
      3.192  0.3842E+01  0.1706E+02
      3.266  0.2130E+01  0.1722E+02
      3.339  0.9245E+00  0.1729E+02
      3.413  0.2319E+01  0.1746E+02
      3.487  0.1390E+00  0.1747E+02
      3.561 -0.4570E-01  0.1747E+02
      3.634  0.5416E+00  0.1751E+02
      3.708  0.2703E+01  0.1771E+02
      3.782  0.4411E+00  0.1774E+02
      3.855  0.1264E+00  0.1775E+02
      3.929  0.9094E+00  0.1781E+02
      4.003  0.5285E-01  0.1782E+02
      4.077  0.1329E+00  0.1783E+02
      4.150  0.1227E+01  0.1792E+02
      4.224  0.3093E+00  0.1794E+02
      4.298  0.1412E+00  0.1795E+02
      4.372  0.5711E+00  0.1799E+02
      4.445 -0.3403E-02  0.1799E+02
      4.519 -0.3296E-02  0.1799E+02
      4.593  0.1447E+00  0.1800E+02
      4.666  0.1686E-01  0.1801E+02
      4.740 -0.1134E-02  0.1801E+02
      4.814 -0.6544E-06  0.1801E+02
      4.888 -0.3546E-11  0.1801E+02
      4.961 -0.1086E-36  0.1801E+02
      5.035 -0.7351E-26  0.1801E+02
      5.109 -0.6205E-17  0.1801E+02
      5.182 -0.6133E-10  0.1801E+02
      5.256 -0.7084E-05  0.1801E+02
      5.330 -0.7292E-02  0.1801E+02
      5.404  0.1249E+00  0.1801E+02
      5.477  0.5344E+00  0.1805E+02
      5.551 -0.5859E-01  0.1805E+02
      5.625  0.7718E+00  0.1811E+02
      5.699  0.5639E+00  0.1815E+02
      5.772 -0.3077E-01  0.1815E+02
      5.846 -0.1105E-03  0.1815E+02
      5.920 -0.2068E-03  0.1815E+02
      5.993 -0.1603E-01  0.1814E+02
      6.067  0.3397E+00  0.1817E+02
      6.141  0.1600E+00  0.1818E+02
      6.215 -0.1804E-01  0.1818E+02
      6.288  0.1415E+00  0.1819E+02
      6.362  0.7989E+00  0.1825E+02
      6.436  0.9462E+00  0.1832E+02
      6.510  0.2050E+01  0.1847E+02
      6.583  0.4094E+01  0.1877E+02
      6.657  0.2458E+01  0.1895E+02
      6.731  0.1963E+01  0.1910E+02
      6.804  0.1368E+01  0.1920E+02
      6.878  0.1940E+00  0.1921E+02
      6.952  0.3070E+00  0.1924E+02
      7.026  0.1011E+01  0.1931E+02
      7.099  0.1063E+00  0.1932E+02
      7.173 -0.2035E-02  0.1932E+02
      7.247  0.6434E+00  0.1937E+02
      7.320  0.7506E+00  0.1942E+02
      7.394  0.9344E+00  0.1949E+02
      7.468  0.1355E+01  0.1959E+02
      7.542  0.3831E+01  0.1987E+02
      7.615  0.2049E+01  0.2002E+02
      7.689  0.2175E+01  0.2018E+02
      7.763  0.7483E+00  0.2024E+02
      7.837  0.1352E+01  0.2034E+02
      7.910  0.4186E+00  0.2037E+02
      7.984 -0.2536E-01  0.2037E+02
      8.058 -0.7804E-04  0.2037E+02
      8.131 -0.1880E-08  0.2037E+02
      8.205 -0.2749E-08  0.2037E+02
      8.279 -0.2968E-04  0.2037E+02
      8.353 -0.1695E-02  0.2037E+02
      8.426 -0.2930E-01  0.2037E+02
      8.500  0.1135E+01  0.2045E+02
      8.574  0.1596E+01  0.2057E+02
      8.647  0.9891E+00  0.2064E+02
      8.721 -0.3437E-01  0.2064E+02
      8.795  0.8232E+00  0.2070E+02
      8.869  0.1590E+00  0.2071E+02
      8.942 -0.2026E-01  0.2071E+02
      9.016  0.1351E+00  0.2072E+02
      9.090  0.1711E+01  0.2084E+02
      9.164  0.7303E+00  0.2090E+02
      9.237 -0.5016E-01  0.2089E+02
      9.311  0.2936E+00  0.2092E+02
      9.385  0.5118E+00  0.2095E+02
      9.458  0.1693E+00  0.2097E+02
      9.532 -0.1363E-01  0.2096E+02
      9.606  0.5617E-01  0.2097E+02
      9.680  0.4303E+00  0.2100E+02
      9.753 -0.7492E-02  0.2100E+02
      9.827 -0.8040E-03  0.2100E+02
      9.901 -0.1334E-06  0.2100E+02
      9.975 -0.2269E-12  0.2100E+02
     10.048  0.0000E+00  0.2100E+02
     10.122  0.0000E+00  0.2100E+02
     10.196  0.0000E+00  0.2100E+02
     10.269  0.0000E+00  0.2100E+02
     10.343  0.0000E+00  0.2100E+02
     10.417  0.0000E+00  0.2100E+02
     10.491  0.0000E+00  0.2100E+02
     10.564  0.0000E+00  0.2100E+02
     10.638  0.0000E+00  0.2100E+02
     10.63803351    -11.47908712  301      4.56475390      1.00000000
    -11.479  0.0000E+00  0.0000E+00  0.0000E+00  0.0000E+00  0.0000E+00  0.0000E+00  0.0000E+00  0.0000E+00  0.0000E+00  0.0000E+00  0.0000E+00  0.0000E+00  0.0000E+00  0.0000E+00  0.0000E+00  0.0000E+00  0.0000E+00  0.0000E+00  0.0000E+00  0.0000E+00  0.0000E+00  0.0000E+00  0.0000E+00  0.0000E+00  0.0000E+00  0.0000E+00  0.0000E+00  0.0000E+00  0.0000E+00  0.0000E+00  0.0000E+00  0.0000E+00  0.0000E+00  0.0000E+00  0.0000E+00  0.0000E+00
    -11.405  0.0000E+00  0.0000E+00  0.0000E+00  0.0000E+00  0.0000E+00  0.0000E+00  0.0000E+00  0.0000E+00  0.0000E+00  0.0000E+00  0.0000E+00  0.0000E+00  0.0000E+00  0.0000E+00  0.0000E+00  0.0000E+00  0.0000E+00  0.0000E+00  0.0000E+00  0.0000E+00  0.0000E+00  0.0000E+00  0.0000E+00  0.0000E+00  0.0000E+00  0.0000E+00  0.0000E+00  0.0000E+00  0.0000E+00  0.0000E+00  0.0000E+00  0.0000E+00  0.0000E+00  0.0000E+00  0.0000E+00  0.0000E+00
    -11.332  0.0000E+00  0.0000E+00  0.0000E+00  0.0000E+00  0.0000E+00  0.0000E+00  0.0000E+00  0.0000E+00  0.0000E+00  0.0000E+00  0.0000E+00  0.0000E+00  0.0000E+00  0.0000E+00  0.0000E+00  0.0000E+00  0.0000E+00  0.0000E+00  0.0000E+00  0.0000E+00  0.0000E+00  0.0000E+00  0.0000E+00  0.0000E+00  0.0000E+00  0.0000E+00  0.0000E+00  0.0000E+00  0.0000E+00  0.0000E+00  0.0000E+00  0.0000E+00  0.0000E+00  0.0000E+00  0.0000E+00  0.0000E+00
    -11.258  0.0000E+00  0.0000E+00  0.0000E+00  0.0000E+00  0.0000E+00  0.0000E+00  0.0000E+00  0.0000E+00  0.0000E+00  0.0000E+00  0.0000E+00  0.0000E+00  0.0000E+00  0.0000E+00  0.0000E+00  0.0000E+00  0.0000E+00  0.0000E+00  0.0000E+00  0.0000E+00  0.0000E+00  0.0000E+00  0.0000E+00  0.0000E+00  0.0000E+00  0.0000E+00  0.0000E+00  0.0000E+00  0.0000E+00  0.0000E+00  0.0000E+00  0.0000E+00  0.0000E+00  0.0000E+00  0.0000E+00  0.0000E+00
    -11.184  0.0000E+00  0.0000E+00  0.0000E+00  0.0000E+00  0.0000E+00  0.0000E+00  0.0000E+00  0.0000E+00  0.0000E+00  0.0000E+00  0.0000E+00  0.0000E+00  0.0000E+00  0.0000E+00  0.0000E+00  0.0000E+00  0.0000E+00  0.0000E+00  0.0000E+00  0.0000E+00  0.0000E+00  0.0000E+00  0.0000E+00  0.0000E+00  0.0000E+00  0.0000E+00  0.0000E+00  0.0000E+00  0.0000E+00  0.0000E+00  0.0000E+00  0.0000E+00  0.0000E+00  0.0000E+00  0.0000E+00  0.0000E+00
    -11.110  0.0000E+00  0.0000E+00  0.0000E+00  0.0000E+00  0.0000E+00  0.0000E+00  0.0000E+00  0.0000E+00  0.0000E+00  0.0000E+00  0.0000E+00  0.0000E+00  0.0000E+00  0.0000E+00  0.0000E+00  0.0000E+00  0.0000E+00  0.0000E+00  0.0000E+00  0.0000E+00  0.0000E+00  0.0000E+00  0.0000E+00  0.0000E+00  0.0000E+00  0.0000E+00  0.0000E+00  0.0000E+00  0.0000E+00  0.0000E+00  0.0000E+00  0.0000E+00  0.0000E+00  0.0000E+00  0.0000E+00  0.0000E+00
    -11.037  0.0000E+00  0.0000E+00  0.0000E+00  0.0000E+00  0.0000E+00  0.0000E+00  0.0000E+00  0.0000E+00  0.0000E+00  0.0000E+00  0.0000E+00  0.0000E+00  0.0000E+00  0.0000E+00  0.0000E+00  0.0000E+00  0.0000E+00  0.0000E+00  0.0000E+00  0.0000E+00  0.0000E+00  0.0000E+00  0.0000E+00  0.0000E+00  0.0000E+00  0.0000E+00  0.0000E+00  0.0000E+00  0.0000E+00  0.0000E+00  0.0000E+00  0.0000E+00  0.0000E+00  0.0000E+00  0.0000E+00  0.0000E+00
    -10.963  0.0000E+00  0.0000E+00  0.0000E+00  0.0000E+00  0.0000E+00  0.0000E+00  0.0000E+00  0.0000E+00  0.0000E+00  0.0000E+00  0.0000E+00  0.0000E+00  0.0000E+00  0.0000E+00  0.0000E+00  0.0000E+00  0.0000E+00  0.0000E+00  0.0000E+00  0.0000E+00  0.0000E+00  0.0000E+00  0.0000E+00  0.0000E+00  0.0000E+00  0.0000E+00  0.0000E+00  0.0000E+00  0.0000E+00  0.0000E+00  0.0000E+00  0.0000E+00  0.0000E+00  0.0000E+00  0.0000E+00  0.0000E+00
    -10.889 -0.1660E-33 -0.2034E-34  0.1485E-33  0.5759E-35 -0.1138E-33  0.4293E-34  0.1014E-33 -0.9918E-37 -0.1655E-32  0.4040E-33  0.1576E-32 -0.2908E-34 -0.1040E-32  0.3086E-33  0.9837E-33 -0.7449E-35 -0.1090E-29  0.2558E-30  0.1039E-29 -0.2237E-31 -0.7662E-30  0.1759E-30  0.7415E-30 -0.6540E-32 -0.1403E-30  0.8924E-31 -0.9186E-31  0.5518E-32 -0.8056E-31  0.5262E-31  0.4889E-31  0.3109E-32 -0.5874E-30 -0.1406E-30 -0.5595E-30 -0.1180E-31
    -10.816 -0.8769E-24 -0.2165E-25  0.7792E-24  0.2786E-25 -0.5918E-24  0.2467E-24  0.5133E-24 -0.3310E-26 -0.7672E-23  0.1963E-23  0.7219E-23 -0.1964E-24 -0.4623E-23  0.1380E-23  0.4352E-23 -0.5987E-25 -0.5086E-20  0.1262E-20  0.4789E-20 -0.1503E-21 -0.3450E-20  0.7911E-21  0.3329E-20 -0.5176E-22 -0.6406E-21  0.3990E-21 -0.3882E-21  0.4142E-22 -0.4373E-21  0.2880E-21  0.2508E-21  0.1791E-22 -0.2737E-20 -0.6919E-21 -0.2575E-20 -0.7989E-22
    -10.742 -0.6136E-16  0.4951E-17  0.5418E-16  0.1322E-17 -0.4009E-16  0.1822E-16  0.3386E-16 -0.5195E-18 -0.4471E-15  0.1223E-15  0.4139E-15 -0.1644E-16 -0.2567E-15  0.7785E-16  0.2397E-15 -0.5888E-17 -0.2995E-12  0.8028E-13  0.2772E-12 -0.1252E-13 -0.1949E-12  0.4515E-13  0.1870E-12 -0.5029E-14 -0.3711E-13  0.2259E-13 -0.1988E-13  0.3851E-14 -0.3085E-13  0.2031E-13  0.1700E-13  0.1218E-14 -0.1611E-12 -0.4393E-13 -0.1490E-12 -0.6715E-14
    -10.668 -0.5936E-10  0.1099E-10  0.5193E-10  0.2517E-12 -0.3642E-10  0.1767E-10  0.3007E-10 -0.8053E-12 -0.3379E-09  0.1008E-09  0.3057E-09 -0.1736E-10 -0.1846E-09  0.5786E-10  0.1702E-09 -0.7140E-11 -0.2302E-06  0.6810E-07  0.2079E-06 -0.1321E-07 -0.1433E-06  0.3434E-07  0.1362E-06 -0.6049E-08 -0.2851E-07  0.1701E-07 -0.1250E-07  0.4482E-08 -0.2911E-07  0.1893E-07  0.1583E-07  0.9973E-09 -0.1241E-06 -0.3732E-07 -0.1120E-06 -0.7155E-08
    -10.594 -0.7506E-06  0.2178E-06  0.6389E-06 -0.1253E-07 -0.4061E-06  0.2068E-06  0.3278E-06 -0.1234E-07 -0.3006E-05  0.9954E-06  0.2613E-05 -0.2069E-06 -0.1561E-05  0.5207E-06  0.1408E-05 -0.9401E-07 -0.2120E-02  0.7032E-03  0.1829E-02 -0.1595E-03 -0.1253E-02  0.3244E-03  0.1166E-02 -0.7935E-04 -0.2698E-03  0.1571E-03 -0.7969E-04  0.5814E-04 -0.3439E-03  0.2166E-03  0.1897E-03  0.8965E-05 -0.1152E-02 -0.3887E-03 -0.9937E-03 -0.8741E-04
    -10.521 -0.9127E-04  0.3452E-04  0.6093E-04 -0.2940E-05 -0.3527E-04  0.1851E-04  0.2421E-04 -0.1606E-05 -0.1610E-03  0.5320E-04  0.1006E-03 -0.1296E-04 -0.7256E-04  0.2647E-04  0.5549E-04 -0.6067E-05 -0.1364E+00  0.4253E-01  0.7881E-01 -0.9942E-02 -0.6985E-01  0.2092E-01  0.5446E-01 -0.4962E-02 -0.2391E-01  0.6462E-02  0.1812E-02  0.4640E-02 -0.4280E-01  0.2245E-01  0.2319E-01 -0.1263E-02 -0.7752E-01 -0.2474E-01 -0.4479E-01 -0.5400E-02
    -10.447  0.1691E-02 -0.6875E-03 -0.1297E-02  0.5339E-04  0.6787E-03 -0.3829E-03 -0.5286E-03  0.2661E-04  0.3690E-02 -0.1284E-02 -0.2705E-02  0.2988E-03  0.1718E-02 -0.6501E-03 -0.1468E-02  0.1331E-03  0.2840E+01 -0.1012E+01 -0.2076E+01  0.2373E+00  0.1392E+01 -0.4881E+00 -0.1383E+01  0.1102E+00  0.2794E+00 -0.1760E+00  0.1366E-01 -0.9372E-01  0.5878E+00 -0.4590E+00 -0.4528E+00  0.4565E-02  0.1564E+01  0.5848E+00  0.1171E+01  0.1291E+00
    -10.373  0.4852E-02 -0.3181E-03 -0.3319E-03  0.5686E-04  0.1981E-02 -0.5043E-03 -0.3434E-03  0.1615E-03  0.5349E-02  0.2363E-03  0.7223E-03 -0.6240E-04  0.2531E-02  0.1551E-04 -0.1662E-03  0.5713E-04  0.7453E+01  0.4671E+00  0.1118E+01 -0.2584E+00  0.5745E+01 -0.6245E-01 -0.1898E+00  0.2023E-01  0.4760E+01  0.3240E+00 -0.4104E+00 -0.1780E+00  0.6170E+01 -0.7600E+00 -0.1017E+01  0.4183E+00  0.4844E+01 -0.2880E+00 -0.7193E+00 -0.1581E+00
    -10.300  0.4084E-03  0.9785E-04  0.1491E-03  0.1310E-04  0.6230E-03  0.2492E-03  0.3640E-04 -0.1249E-03  0.1893E-03  0.5317E-04  0.1849E-03 -0.1793E-04  0.5903E-03  0.1908E-04  0.3029E-03  0.7239E-04  0.2512E+01  0.5252E+00  0.9736E+00 -0.2417E-02  0.4453E+01  0.7140E+00  0.1623E+01 -0.1104E+00  0.4472E+01 -0.2298E+00  0.3571E+00  0.3560E+00  0.4409E+01  0.1278E+01  0.1800E+01 -0.4573E+00  0.2093E+01 -0.5065E+00 -0.8271E+00  0.3801E-01
    -10.226 -0.3120E-04 -0.2996E-05 -0.4801E-05 -0.9368E-06 -0.3235E-04 -0.1010E-04  0.9187E-06  0.4506E-05 -0.2294E-04 -0.2549E-05 -0.1016E-04  0.6601E-06 -0.3350E-04  0.4860E-06 -0.1467E-04 -0.3724E-05 -0.1280E+00 -0.1490E-01 -0.4562E-01 -0.2250E-02 -0.2081E+00 -0.1779E-01 -0.8426E-01 -0.2454E-04 -0.1983E+00  0.2120E-01  0.7549E-02 -0.9145E-02 -0.1949E+00 -0.5670E-01 -0.5320E-01  0.1516E-01 -0.1028E+00  0.1515E-01  0.3807E-01 -0.3748E-02
    -10.152 -0.2058E-06 -0.2526E-07 -0.5254E-07 -0.1337E-08 -0.4000E-06 -0.1378E-06 -0.7695E-07  0.1183E-06 -0.9616E-07 -0.8623E-09 -0.2618E-07  0.1280E-07 -0.3306E-06 -0.4300E-07 -0.7980E-07 -0.3366E-07 -0.1660E-02 -0.7211E-03 -0.5787E-03  0.1243E-03 -0.2981E-02 -0.1065E-02 -0.4452E-03  0.3041E-03 -0.3362E-02 -0.3751E-03 -0.1267E-02 -0.5371E-03 -0.3476E-02 -0.7334E-03 -0.2291E-02  0.5159E-03 -0.1403E-02  0.6626E-03  0.5181E-03  0.7866E-04
    -10.078 -0.1717E-10 -0.3637E-11 -0.7393E-11  0.4628E-12 -0.3897E-10 -0.1227E-10 -0.1354E-10  0.1227E-10 -0.7301E-11 -0.1205E-11 -0.1118E-11  0.1887E-11 -0.2905E-10 -0.9027E-11 -0.1494E-11 -0.1926E-11 -0.1748E-06 -0.1067E-06 -0.5387E-07  0.1957E-07 -0.2987E-06 -0.1550E-06  0.5874E-08  0.4130E-07 -0.3649E-06 -0.7945E-07 -0.2072E-06 -0.6628E-07 -0.3970E-06 -0.6691E-07 -0.3119E-06  0.5812E-07 -0.1491E-06  0.9511E-07  0.4903E-07  0.1395E-07
    -10.005 -0.1869E-16 -0.5386E-17 -0.1065E-16  0.8461E-18 -0.4742E-16 -0.1438E-16 -0.2197E-16  0.1434E-16 -0.8595E-17 -0.2659E-17 -0.6898E-18  0.2500E-17 -0.3405E-16 -0.1533E-16  0.2713E-17 -0.1333E-17 -0.2332E-12 -0.1661E-12 -0.6348E-13  0.2625E-13 -0.3755E-12 -0.2368E-12  0.4905E-13  0.5433E-13 -0.4821E-12 -0.1344E-12 -0.3304E-12 -0.8442E-13 -0.5442E-12 -0.8187E-13 -0.4652E-12  0.7138E-13 -0.1996E-12  0.1461E-12  0.5845E-13  0.1919E-13
     -9.931 -0.3126E-12 -0.9340E-13 -0.2843E-12  0.2643E-13 -0.3361E-12 -0.3030E-12  0.6962E-13  0.2518E-13 -0.2175E-11 -0.6108E-12 -0.2056E-11  0.1881E-13 -0.1494E-11 -0.1850E-12 -0.1477E-11  0.3520E-13 -0.8093E-09 -0.2185E-09 -0.7660E-09 -0.1457E-10 -0.7350E-09  0.1525E-09 -0.7120E-09  0.1611E-10 -0.1846E-09 -0.1106E-09  0.1290E-09  0.5574E-11 -0.4599E-09 -0.1795E-09  0.4097E-09  0.1506E-10 -0.1422E-09  0.2545E-10  0.1341E-09  0.6597E-11
     -9.857 -0.2513E-07 -0.8781E-08 -0.2208E-07  0.3164E-08 -0.2088E-07 -0.1821E-07  0.2152E-08  0.2910E-08 -0.1164E-06 -0.3554E-07 -0.1077E-06  0.2155E-08 -0.7651E-07 -0.9502E-08 -0.7531E-07  0.4063E-08 -0.4458E-04 -0.1331E-04 -0.4117E-04 -0.1682E-05 -0.3968E-04  0.8993E-05 -0.3789E-04  0.1868E-05 -0.9560E-05 -0.5732E-05  0.5667E-05  0.6380E-06 -0.2612E-04 -0.1105E-04  0.2222E-04  0.1745E-05 -0.8141E-05  0.1814E-05  0.7299E-05  0.7568E-06
     -9.783 -0.2558E-04 -0.1033E-04 -0.2157E-04  0.3667E-05 -0.1524E-04 -0.1284E-04 -0.2122E-06  0.3103E-05 -0.6914E-04 -0.2435E-04 -0.6135E-04  0.2284E-05 -0.4184E-04 -0.5211E-05 -0.4082E-04  0.4332E-05 -0.2824E-01 -0.9943E-02 -0.2490E-01 -0.1837E-02 -0.2418E-01  0.6404E-02 -0.2248E-01  0.2032E-02 -0.5368E-02 -0.3235E-02  0.2097E-02  0.6749E-03 -0.1735E-01 -0.8323E-02  0.1365E-01  0.1901E-02 -0.5516E-02  0.1678E-02  0.4537E-02  0.8194E-03
     -9.710  0.2134E-03  0.6261E-04  0.2216E-03 -0.5039E-04  0.2093E-03  0.1784E-03 -0.4119E-05 -0.4989E-04  0.1049E-02  0.3520E-03  0.9817E-03 -0.3598E-04  0.6708E-03  0.8409E-04  0.6615E-03 -0.6816E-04  0.3868E+00  0.1274E+00  0.3778E+00  0.2769E-01  0.3465E+00 -0.8286E-01  0.3413E+00 -0.3084E-01  0.8265E-01  0.5113E-01 -0.4293E-01 -0.1043E-01  0.2293E+00  0.1033E+00 -0.2030E+00 -0.2935E-01  0.6936E-01 -0.2337E-01 -0.7239E-01 -0.1241E-01
     -9.636  0.5519E-02  0.2774E-02  0.4151E-02 -0.4992E-03  0.1855E-02  0.1583E-02  0.1782E-03 -0.2900E-03  0.6530E-02  0.2800E-02  0.5146E-02 -0.2188E-03  0.3287E-02  0.4111E-03  0.3197E-02 -0.4271E-03  0.3314E+01  0.1472E+01  0.2539E+01  0.2099E+00  0.2589E+01 -0.9276E+00  0.2229E+01 -0.2200E+00  0.4097E+00  0.3011E+00  0.1329E-01 -0.5416E-01  0.2182E+01  0.1271E+01 -0.1459E+01 -0.2039E+00  0.6160E+00 -0.2929E+00 -0.5178E+00 -0.9463E-01
     -9.562  0.5424E-02 -0.5153E-03 -0.6939E-03  0.2170E-03  0.1315E-02 -0.1687E-03 -0.8692E-04  0.1293E-03  0.4422E-02 -0.1138E-02 -0.2318E-02 -0.4536E-04  0.1627E-02 -0.8475E-04 -0.6626E-03  0.7375E-04  0.4448E+01 -0.1092E+01 -0.2088E+01 -0.1836E+00  0.2709E+01  0.6400E+00 -0.7896E+00  0.2228E-01  0.1032E+01 -0.5111E+00 -0.5783E-01 -0.2773E+00  0.2812E+01 -0.4147E+00  0.9523E+00  0.1662E+00  0.3304E+01  0.1557E+01  0.2573E+01  0.1172E+00
     -9.489  0.2488E-02 -0.5495E-03 -0.8061E-03  0.1374E-03  0.2129E-02 -0.5425E-03  0.1171E-02  0.7039E-04  0.1406E-02 -0.4099E-03 -0.8815E-03 -0.5883E-04  0.1997E-02  0.5627E-03 -0.1046E-02  0.3239E-04  0.3821E+01 -0.4505E+00 -0.1107E+01 -0.1511E+00  0.7054E+01  0.9435E+00 -0.2290E+01  0.8609E-01  0.1165E+02  0.8076E+00  0.1380E+01  0.9252E-01  0.7523E+01 -0.1209E+01  0.1782E+01  0.6302E-01  0.9708E+01 -0.5879E-01  0.2916E+00 -0.3134E-01
     -9.415  0.2918E-03  0.1084E-04 -0.5275E-04 -0.4187E-04  0.3897E-03  0.3100E-04  0.4113E-04  0.5458E-05  0.1485E-03  0.2778E-04  0.7061E-04 -0.3872E-05  0.3103E-03  0.9077E-05  0.7638E-04 -0.1086E-04  0.1173E+01 -0.8182E-01  0.2252E+00  0.1416E+00  0.2236E+01 -0.7841E+00  0.4917E+00  0.1374E+00  0.4309E+01 -0.6256E+00 -0.1334E+01  0.1791E+00  0.2749E+01  0.2200E+00 -0.1458E+01  0.2777E-01  0.4841E+01 -0.1017E+01 -0.2001E+01  0.2259E-01
     -9.341 -0.2180E-04  0.1082E-05  0.5082E-05  0.1781E-05 -0.2480E-04 -0.3039E-06 -0.4635E-05 -0.4547E-06 -0.1178E-04 -0.1771E-06 -0.9820E-06  0.3317E-06 -0.2083E-04 -0.1787E-05 -0.1264E-05  0.4715E-06 -0.6994E-01  0.5945E-02 -0.7988E-02 -0.6844E-02 -0.1306E+00  0.3723E-01 -0.1944E-01 -0.7244E-02 -0.2462E+00  0.3141E-01  0.6667E-01 -0.9006E-02 -0.1570E+00 -0.8440E-02  0.6949E-01 -0.1542E-02 -0.2683E+00  0.5020E-01  0.9932E-01 -0.1573E-02
     -9.267 -0.5808E-07  0.1564E-08  0.1657E-07  0.7153E-08 -0.8502E-07 -0.1205E-07  0.2088E-07 -0.8569E-09 -0.5216E-07 -0.4923E-08 -0.1232E-07  0.1885E-08 -0.7658E-07  0.7747E-08 -0.2114E-07  0.1320E-08 -0.3521E-03  0.1732E-04 -0.6355E-04 -0.3330E-04 -0.5989E-03  0.2670E-03 -0.1681E-03 -0.5550E-04 -0.1009E-02  0.1560E-03  0.3774E-03 -0.5773E-04 -0.7810E-03 -0.9486E-04  0.5548E-03  0.2578E-05 -0.1500E-02  0.4083E-03  0.7594E-03  0.1106E-04
     -9.194 -0.1689E-11 -0.5801E-13  0.3684E-12  0.1835E-12 -0.3279E-11 -0.5019E-12  0.1227E-11 -0.2503E-13 -0.2044E-11 -0.2766E-12 -0.5871E-12  0.1062E-12 -0.2932E-11  0.4772E-12 -0.8443E-12  0.1935E-13 -0.1408E-07 -0.4836E-10 -0.2988E-08 -0.1076E-08 -0.2425E-07  0.1180E-07 -0.7198E-08 -0.2524E-08 -0.3699E-07  0.4273E-08  0.1286E-07 -0.2628E-08 -0.3290E-07 -0.4331E-08  0.2514E-07  0.2790E-09 -0.6489E-07  0.2050E-07  0.3595E-07  0.1265E-08
     -9.120 -0.6076E-18 -0.6257E-19  0.6846E-19  0.4549E-19 -0.1578E-17 -0.2336E-18  0.6953E-18 -0.1238E-19 -0.9544E-18 -0.1640E-18 -0.3100E-18  0.6167E-19 -0.1392E-17  0.2923E-18 -0.3874E-18 -0.3728E-20 -0.6558E-14 -0.3912E-15 -0.1619E-14 -0.3796E-15 -0.1183E-13  0.6012E-14 -0.3585E-14 -0.1291E-14 -0.1613E-13  0.1087E-14  0.4836E-14 -0.1310E-14 -0.1633E-13 -0.2238E-14  0.1279E-13  0.1699E-15 -0.3279E-13  0.1147E-13  0.1923E-13  0.9352E-15
     -9.046  0.0000E+00  0.0000E+00  0.0000E+00  0.0000E+00  0.0000E+00  0.0000E+00  0.0000E+00  0.0000E+00  0.0000E+00  0.0000E+00  0.0000E+00  0.0000E+00  0.0000E+00  0.0000E+00  0.0000E+00  0.0000E+00  0.0000E+00  0.0000E+00  0.0000E+00  0.0000E+00  0.0000E+00  0.0000E+00  0.0000E+00  0.0000E+00  0.0000E+00  0.0000E+00  0.0000E+00  0.0000E+00  0.0000E+00  0.0000E+00  0.0000E+00  0.0000E+00  0.0000E+00  0.0000E+00  0.0000E+00  0.0000E+00
     -8.972  0.0000E+00  0.0000E+00  0.0000E+00  0.0000E+00  0.0000E+00  0.0000E+00  0.0000E+00  0.0000E+00  0.0000E+00  0.0000E+00  0.0000E+00  0.0000E+00  0.0000E+00  0.0000E+00  0.0000E+00  0.0000E+00  0.0000E+00  0.0000E+00  0.0000E+00  0.0000E+00  0.0000E+00  0.0000E+00  0.0000E+00  0.0000E+00  0.0000E+00  0.0000E+00  0.0000E+00  0.0000E+00  0.0000E+00  0.0000E+00  0.0000E+00  0.0000E+00  0.0000E+00  0.0000E+00  0.0000E+00  0.0000E+00
     -8.899  0.0000E+00  0.0000E+00  0.0000E+00  0.0000E+00  0.0000E+00  0.0000E+00  0.0000E+00  0.0000E+00  0.0000E+00  0.0000E+00  0.0000E+00  0.0000E+00  0.0000E+00  0.0000E+00  0.0000E+00  0.0000E+00  0.0000E+00  0.0000E+00  0.0000E+00  0.0000E+00  0.0000E+00  0.0000E+00  0.0000E+00  0.0000E+00  0.0000E+00  0.0000E+00  0.0000E+00  0.0000E+00  0.0000E+00  0.0000E+00  0.0000E+00  0.0000E+00  0.0000E+00  0.0000E+00  0.0000E+00  0.0000E+00
     -8.825  0.0000E+00  0.0000E+00  0.0000E+00  0.0000E+00  0.0000E+00  0.0000E+00  0.0000E+00  0.0000E+00  0.0000E+00  0.0000E+00  0.0000E+00  0.0000E+00  0.0000E+00  0.0000E+00  0.0000E+00  0.0000E+00  0.0000E+00  0.0000E+00  0.0000E+00  0.0000E+00  0.0000E+00  0.0000E+00  0.0000E+00  0.0000E+00  0.0000E+00  0.0000E+00  0.0000E+00  0.0000E+00  0.0000E+00  0.0000E+00  0.0000E+00  0.0000E+00  0.0000E+00  0.0000E+00  0.0000E+00  0.0000E+00
     -8.751  0.0000E+00  0.0000E+00  0.0000E+00  0.0000E+00  0.0000E+00  0.0000E+00  0.0000E+00  0.0000E+00  0.0000E+00  0.0000E+00  0.0000E+00  0.0000E+00  0.0000E+00  0.0000E+00  0.0000E+00  0.0000E+00  0.0000E+00  0.0000E+00  0.0000E+00  0.0000E+00  0.0000E+00  0.0000E+00  0.0000E+00  0.0000E+00  0.0000E+00  0.0000E+00  0.0000E+00  0.0000E+00  0.0000E+00  0.0000E+00  0.0000E+00  0.0000E+00  0.0000E+00  0.0000E+00  0.0000E+00  0.0000E+00
     -8.678  0.0000E+00  0.0000E+00  0.0000E+00  0.0000E+00  0.0000E+00  0.0000E+00  0.0000E+00  0.0000E+00  0.0000E+00  0.0000E+00  0.0000E+00  0.0000E+00  0.0000E+00  0.0000E+00  0.0000E+00  0.0000E+00  0.0000E+00  0.0000E+00  0.0000E+00  0.0000E+00  0.0000E+00  0.0000E+00  0.0000E+00  0.0000E+00  0.0000E+00  0.0000E+00  0.0000E+00  0.0000E+00  0.0000E+00  0.0000E+00  0.0000E+00  0.0000E+00  0.0000E+00  0.0000E+00  0.0000E+00  0.0000E+00
     -8.604  0.0000E+00  0.0000E+00  0.0000E+00  0.0000E+00  0.0000E+00  0.0000E+00  0.0000E+00  0.0000E+00  0.0000E+00  0.0000E+00  0.0000E+00  0.0000E+00  0.0000E+00  0.0000E+00  0.0000E+00  0.0000E+00  0.0000E+00  0.0000E+00  0.0000E+00  0.0000E+00  0.0000E+00  0.0000E+00  0.0000E+00  0.0000E+00  0.0000E+00  0.0000E+00  0.0000E+00  0.0000E+00  0.0000E+00  0.0000E+00  0.0000E+00  0.0000E+00  0.0000E+00  0.0000E+00  0.0000E+00  0.0000E+00
     -8.530  0.0000E+00  0.0000E+00  0.0000E+00  0.0000E+00  0.0000E+00  0.0000E+00  0.0000E+00  0.0000E+00  0.0000E+00  0.0000E+00  0.0000E+00  0.0000E+00  0.0000E+00  0.0000E+00  0.0000E+00  0.0000E+00  0.0000E+00  0.0000E+00  0.0000E+00  0.0000E+00  0.0000E+00  0.0000E+00  0.0000E+00  0.0000E+00  0.0000E+00  0.0000E+00  0.0000E+00  0.0000E+00  0.0000E+00  0.0000E+00  0.0000E+00  0.0000E+00  0.0000E+00  0.0000E+00  0.0000E+00  0.0000E+00
     -8.456  0.0000E+00  0.0000E+00  0.0000E+00  0.0000E+00  0.0000E+00  0.0000E+00  0.0000E+00  0.0000E+00  0.0000E+00  0.0000E+00  0.0000E+00  0.0000E+00  0.0000E+00  0.0000E+00  0.0000E+00  0.0000E+00  0.0000E+00  0.0000E+00  0.0000E+00  0.0000E+00  0.0000E+00  0.0000E+00  0.0000E+00  0.0000E+00  0.0000E+00  0.0000E+00  0.0000E+00  0.0000E+00  0.0000E+00  0.0000E+00  0.0000E+00  0.0000E+00  0.0000E+00  0.0000E+00  0.0000E+00  0.0000E+00