<?xml version="1.0" encoding="ISO-8859-1"?>
<modeling>
 <generator>
  <i name="program" type="string">vasp </i>
  <i name="version" type="string">5.4.4.18Apr17-6-g9f103f2a35  </i>
  <i name="subversion" type="string">(build Sep 01 2023 15:53:54) complex            parallel </i>
  <i name="platform" type="string">LinuxIFC </i>
  <i name="date" type="string">2023 11 23 </i>
  <i name="time" type="string">02:36:44 </i>
 </generator>
 <incar>
  <i type="int" name="ISTART">     0</i>
  <i type="string" name="PREC">n</i>
  <i type="string" name="ALGO"> D</i>
  <i type="logical" name="LSORBIT"> T  </i>
  <v name="SAXIS">      0.00000000      0.00000000      1.00000000</v>
  <i type="int" name="ISPIN">     2</i>
  <i name="BMIX">      3.00000000</i>
  <i name="AMIN">      0.01000000</i>
  <i type="int" name="ICHARG">     2</i>
  <i name="EDIFF">      0.00001000</i>
  <i name="ENCUT">    400.00000000</i>
  <i type="int" name="NBANDS">    21</i>
  <v name="MAGMOM">      0.00000000      0.00000000      0.00000000      0.00000000      0.00000000      0.00000000</v>
  <i name="SIGMA">      0.05000000</i>
  <i type="int" name="LMAXMIX">     4</i>
  <i type="int" name="LORBIT">    11</i>
  <v type="int" name="KPOINT_BSE">    -1     0     0     0</v>
  <i type="string" name="GGA"> Pe</i>
  <i type="logical" name="LDAU"> T  </i>
  <v type="int" name="LDAUL">     1     1</v>
  <v name="LDAUU">      0.00000000      0.00000000</v>
  <v name="LDAUJ">      0.00000000      0.00000000</v>
 </incar>
 <structure name="primitive_cell" >
  <crystal>
   <varray name="basis" >
    <v>       0.00000000       3.02920000       3.02920000 </v>
    <v>       3.02920000       0.00000000       3.02920000 </v>
    <v>       3.02920000       3.02920000       0.00000000 </v>
   </varray>
   <i name="volume">     55.59219731 </i>
   <varray name="rec_basis" >
    <v>      -0.16506008       0.16506008       0.16506008 </v>
    <v>       0.16506008      -0.16506008       0.16506008 </v>
    <v>       0.16506008       0.16506008      -0.16506008 </v>
   </varray>
  </crystal>
  <varray name="positions" >
   <v>       0.00000000       0.00000000       0.00000000 </v>
   <v>      -0.25000000      -0.25000000      -0.25000000 </v>
  </varray>
 </structure>
 <varray name="primitive_index" >
  <v type="int" >        1 </v>
  <v type="int" >        2 </v>
 </varray>
 <kpoints>
  <generation param="Gamma">
   <v type="int" name="divisions">       7        7        7 </v>
   <v name="usershift">      0.00000000       0.00000000       0.00000000 </v>
   <v name="genvec1">      0.14285714       0.00000000       0.00000000 </v>
   <v name="genvec2">      0.00000000       0.14285714       0.00000000 </v>
   <v name="genvec3">      0.00000000       0.00000000       0.14285714 </v>
   <v name="shift">      0.00000000       0.00000000       0.00000000 </v>
  </generation>
  <varray name="kpointlist" >
   <v>       0.00000000       0.00000000       0.00000000 </v>
   <v>       0.14285714       0.00000000       0.00000000 </v>
   <v>       0.28571429       0.00000000       0.00000000 </v>
   <v>       0.42857143       0.00000000       0.00000000 </v>
   <v>      -0.42857143       0.00000000       0.00000000 </v>
   <v>      -0.28571429       0.00000000       0.00000000 </v>
   <v>      -0.14285714       0.00000000       0.00000000 </v>
   <v>       0.14285714       0.14285714       0.00000000 </v>
   <v>       0.28571429       0.14285714       0.00000000 </v>
   <v>       0.42857143       0.14285714       0.00000000 </v>
   <v>      -0.42857143       0.14285714       0.00000000 </v>
   <v>      -0.28571429       0.14285714       0.00000000 </v>
   <v>      -0.14285714       0.14285714       0.00000000 </v>
   <v>       0.28571429       0.28571429       0.00000000 </v>
   <v>       0.42857143       0.28571429       0.00000000 </v>
   <v>      -0.42857143       0.28571429       0.00000000 </v>
   <v>      -0.28571429       0.28571429       0.00000000 </v>
   <v>      -0.14285714       0.28571429       0.00000000 </v>
   <v>       0.42857143       0.42857143       0.00000000 </v>
   <v>      -0.42857143       0.42857143       0.00000000 </v>
   <v>      -0.28571429       0.42857143       0.00000000 </v>
   <v>      -0.14285714       0.42857143       0.00000000 </v>
   <v>      -0.28571429      -0.42857143       0.00000000 </v>
   <v>      -0.14285714      -0.42857143       0.00000000 </v>
   <v>      -0.14285714      -0.28571429       0.00000000 </v>
   <v>       0.42857143       0.28571429       0.14285714 </v>
   <v>      -0.42857143       0.28571429       0.14285714 </v>
   <v>      -0.28571429       0.28571429       0.14285714 </v>
   <v>      -0.42857143       0.42857143       0.14285714 </v>
   <v>      -0.28571429       0.42857143       0.14285714 </v>
  </varray>
  <varray name="weights" >
   <v>       0.00291545 </v>
   <v>       0.01166181 </v>
   <v>       0.01166181 </v>
   <v>       0.01166181 </v>
   <v>       0.01166181 </v>
   <v>       0.01166181 </v>
   <v>       0.01166181 </v>
   <v>       0.01749271 </v>
   <v>       0.03498542 </v>
   <v>       0.03498542 </v>
   <v>       0.03498542 </v>
   <v>       0.03498542 </v>
   <v>       0.03498542 </v>
   <v>       0.01749271 </v>
   <v>       0.03498542 </v>
   <v>       0.03498542 </v>
   <v>       0.03498542 </v>
   <v>       0.03498542 </v>
   <v>       0.01749271 </v>
   <v>       0.03498542 </v>
   <v>       0.03498542 </v>
   <v>       0.03498542 </v>
   <v>       0.03498542 </v>
   <v>       0.03498542 </v>
   <v>       0.03498542 </v>
   <v>       0.06997085 </v>
   <v>       0.06997085 </v>
   <v>       0.06997085 </v>
   <v>       0.06997085 </v>
   <v>       0.06997085 </v>
  </varray>
 </kpoints>
 <parameters>
  <separator name="general" >
   <i type="string" name="SYSTEM">unknown system</i>
   <i type="logical" name="LCOMPAT"> F  </i>
  </separator>
  <separator name="electronic" >
   <i type="string" name="PREC">n</i>
   <i name="ENMAX">    400.00000000</i>
   <i name="ENAUG">    462.75800000</i>
   <i name="EDIFF">      0.00001000</i>
   <i type="int" name="IALGO">    53</i>
   <i type="int" name="IWAVPR">    10</i>
   <i type="int" name="NBANDS">    21</i>
   <i name="NELECT">     18.00000000</i>
   <i type="int" name="TURBO">     0</i>
   <i type="int" name="IRESTART">     0</i>
   <i type="int" name="NREBOOT">     0</i>
   <i type="int" name="NMIN">     0</i>
   <i name="EREF">      0.00000000</i>
   <separator name="electronic smearing" >
    <i type="int" name="ISMEAR">     1</i>
    <i name="SIGMA">      0.05000000</i>
    <i name="KSPACING">      0.50000000</i>
    <i type="logical" name="KGAMMA"> T  </i>
   </separator>
   <separator name="electronic projectors" >
    <i type="logical" name="LREAL"> F  </i>
    <v name="ROPT">      0.00000000      0.00000000</v>
    <i type="int" name="LMAXPAW">  -100</i>
    <i type="int" name="LMAXMIX">     4</i>
    <i type="logical" name="NLSPLINE"> F  </i>
   </separator>
   <separator name="electronic startup" >
    <i type="int" name="ISTART">     0</i>
    <i type="int" name="ICHARG">     2</i>
    <i type="int" name="INIWAV">     1</i>
   </separator>
   <separator name="electronic spin" >
    <i type="int" name="ISPIN">     1</i>
    <i type="logical" name="LNONCOLLINEAR"> T  </i>
    <v name="MAGMOM">      0.00000000      0.00000000      0.00000000      0.00000000      0.00000000      0.00000000</v>
    <i name="NUPDOWN">     -1.00000000</i>
    <i type="logical" name="LSORBIT"> T  </i>
    <v name="SAXIS">      0.00000000      0.00000000      1.00000000</v>
    <i type="logical" name="LSPIRAL"> F  </i>
    <v name="QSPIRAL">      0.00000000      0.00000000      0.00000000</v>
    <i type="logical" name="LZEROZ"> F  </i>
   </separator>
   <separator name="electronic exchange-correlation" >
    <i type="logical" name="LASPH"> F  </i>
    <i type="logical" name="LMETAGGA"> F  </i>
   </separator>
   <separator name="electronic convergence" >
    <i type="int" name="NELM">    60</i>
    <i type="int" name="NELMDL">    -5</i>
    <i type="int" name="NELMIN">     2</i>
    <i name="ENINI">    400.00000000</i>
    <separator name="electronic convergence detail" >
     <i type="logical" name="LDIAG"> T  </i>
     <i type="logical" name="LSUBROT"> F  </i>
     <i name="WEIMIN">      0.00000000</i>
     <i name="EBREAK">      0.00000012</i>
     <i name="DEPER">      0.30000000</i>
     <i type="int" name="NRMM">     4</i>
     <i name="TIME">      0.40000000</i>
    </separator>
   </separator>
   <separator name="electronic mixer" >
    <i name="AMIX">      0.40000000</i>
    <i name="BMIX">      3.00000000</i>
    <i name="AMIN">      0.01000000</i>
    <i name="AMIX_MAG">      1.60000000</i>
    <i name="BMIX_MAG">      3.00000000</i>
    <separator name="electronic mixer details" >
     <i type="int" name="IMIX">     4</i>
     <i type="logical" name="MIXFIRST"> F  </i>
     <i type="int" name="MAXMIX">   -45</i>
     <i name="WC">    100.00000000</i>
     <i type="int" name="INIMIX">     1</i>
     <i type="int" name="MIXPRE">     1</i>
     <i type="int" name="MREMOVE">     5</i>
    </separator>
   </separator>
   <separator name="electronic dipolcorrection" >
    <i type="logical" name="LDIPOL"> F  </i>
    <i type="logical" name="LMONO"> F  </i>
    <i type="int" name="IDIPOL">     0</i>
    <i name="EPSILON">      1.00000000</i>
    <v name="DIPOL">   -100.00000000   -100.00000000   -100.00000000</v>
    <i name="EFIELD">      0.00000000</i>
   </separator>
  </separator>
  <separator name="grids" >
   <i type="int" name="NGX">    24</i>
   <i type="int" name="NGY">    24</i>
   <i type="int" name="NGZ">    24</i>
   <i type="int" name="NGXF">    48</i>
   <i type="int" name="NGYF">    48</i>
   <i type="int" name="NGZF">    48</i>
   <i type="logical" name="ADDGRID"> F  </i>
  </separator>
  <separator name="ionic" >
   <i type="int" name="NSW">     0</i>
   <i type="int" name="IBRION">    -1</i>
   <i type="int" name="MDALGO">     0</i>
   <i type="int" name="ISIF">     2</i>
   <i name="PSTRESS">      0.00000000</i>
   <i name="EDIFFG">      0.00010000</i>
   <i type="int" name="NFREE">     0</i>
   <i name="POTIM">      0.50000000</i>
   <i name="SMASS">     -3.00000000</i>
   <i name="SCALEE">      1.00000000</i>
  </separator>
  <separator name="ionic md" >
   <i name="TEBEG">      0.00010000</i>
   <i name="TEEND">      0.00010000</i>
   <i type="int" name="NBLOCK">     1</i>
   <i type="int" name="KBLOCK">     1</i>
   <i type="int" name="NPACO">   256</i>
   <i name="APACO">     16.00000000</i>
  </separator>
  <separator name="symmetry" >
   <i type="int" name="ISYM">     2</i>
   <i name="SYMPREC">      0.00001000</i>
  </separator>
  <separator name="dos" >
   <i type="int" name="LORBIT">    11</i>
   <v name="RWIGS">     -1.00000000     -1.00000000</v>
   <i type="int" name="NEDOS">   301</i>
   <i name="EMIN">     10.00000000</i>
   <i name="EMAX">    -10.00000000</i>
   <i name="EFERMI">      0.00000000</i>
  </separator>
  <separator name="writing" >
   <i type="int" name="NWRITE">     2</i>
   <i type="logical" name="LWAVE"> T  </i>
   <i type="logical" name="LDOWNSAMPLE"> F  </i>
   <i type="logical" name="LCHARG"> T  </i>
   <i type="logical" name="LPARD"> F  </i>
   <i type="logical" name="LVTOT"> F  </i>
   <i type="logical" name="LVHAR"> F  </i>
   <i type="logical" name="LELF"> F  </i>
   <i type="logical" name="LOPTICS"> F  </i>
   <v name="STM">      0.00000000      0.00000000      0.00000000      0.00000000      0.00000000      0.00000000      0.00000000</v>
  </separator>
  <separator name="performance" >
   <i type="int" name="NPAR">     3</i>
   <i type="int" name="NSIM">     4</i>
   <i type="int" name="NBLK">    -1</i>
   <i type="logical" name="LPLANE"> T  </i>
   <i type="logical" name="LSCALAPACK"> T  </i>
   <i type="logical" name="LSCAAWARE"> F  </i>
   <i type="logical" name="LSCALU"> F  </i>
   <i type="logical" name="LASYNC"> F  </i>
   <i type="logical" name="LORBITALREAL"> F  </i>
  </separator>
  <separator name="miscellaneous" >
   <i type="int" name="IDIOT">     3</i>
   <i type="int" name="ISPECIAL">     0</i>
   <i type="logical" name="LMUSIC"> F  </i>
   <v name="POMASS">    114.82000000     74.92200000</v>
   <v name="DARWINR">      0.00000000      0.00000000</v>
   <v name="DARWINV">      1.00000000      1.00000000</v>
   <i type="logical" name="LCORR"> T  </i>
  </separator>
  <i type="logical" name="GGA_COMPAT"> T  </i>
  <i type="logical" name="LBERRY"> F  </i>
  <i type="int" name="ICORELEVEL">     0</i>
  <i type="logical" name="LDAU"> T  </i>
  <v type="int" name="LDAUTYPE">     2</v>
  <v type="int" name="LDAUL">     1</v>
  <v name="LDAUU">      0.00000000</v>
  <v name="LDAUJ">      0.00000000</v>
  <i type="int" name="LDAUPRINT">     0</i>
  <i type="int" name="I_CONSTRAINED_M">     0</i>
  <separator name="electronic exchange-correlation" >
   <i type="string" name="GGA">PE</i>
   <i type="int" name="VOSKOWN">     0</i>
   <i type="logical" name="LHFCALC"> F  </i>
   <i type="string" name="PRECFOCK"></i>
   <i type="logical" name="LSYMGRAD"> F  </i>
   <i type="logical" name="LHFONE"> F  </i>
   <i type="logical" name="LRHFCALC"> F  </i>
   <i type="logical" name="LTHOMAS"> F  </i>
   <i type="logical" name="LMODELHF"> F  </i>
   <i name="ENCUT4O">     -1.00000000</i>
   <i type="int" name="EXXOEP">     0</i>
   <i type="int" name="FOURORBIT">     0</i>
   <i name="AEXX">      0.00000000</i>
   <i name="HFALPHA">      0.00000000</i>
   <i name="MCALPHA">      0.00000000</i>
   <i name="ALDAX">      1.00000000</i>
   <i name="AGGAX">      1.00000000</i>
   <i name="ALDAC">      1.00000000</i>
   <i name="AGGAC">      1.00000000</i>
   <i type="int" name="NKREDX">     1</i>
   <i type="int" name="NKREDY">     1</i>
   <i type="int" name="NKREDZ">     1</i>
   <i type="logical" name="SHIFTRED"> F  </i>
   <i type="logical" name="ODDONLY"> F  </i>
   <i type="logical" name="EVENONLY"> F  </i>
   <i type="int" name="LMAXFOCK">     0</i>
   <i type="int" name="NMAXFOCKAE">     0</i>
   <i type="logical" name="LFOCKAEDFT"> F  </i>
   <i name="HFSCREEN">      0.00000000</i>
   <i name="HFSCREENC">      0.00000000</i>
   <i type="int" name="NBANDSGWLOW">     0</i>
  </separator>
  <separator name="vdW DFT" >
   <i type="logical" name="LUSE_VDW"> F  </i>
   <i name="Zab_VDW">     -0.84910000</i>
   <i name="PARAM1">      0.12340000</i>
   <i name="PARAM2">      1.00000000</i>
   <i name="PARAM3">      0.00000000</i>
  </separator>
  <separator name="model GW" >
   <i type="int" name="MODEL_GW">     0</i>
   <i name="MODEL_EPS0">     16.67765919</i>
   <i name="MODEL_ALPHA">      1.00000000</i>
  </separator>
  <separator name="linear response parameters" >
   <i type="logical" name="LEPSILON"> F  </i>
   <i type="logical" name="LRPA"> F  </i>
   <i type="logical" name="LNABLA"> F  </i>
   <i type="logical" name="LVEL"> F  </i>
   <i type="int" name="KINTER">     0</i>
   <i name="CSHIFT">      0.10000000</i>
   <i name="OMEGAMAX">     -1.00000000</i>
   <i name="DEG_THRESHOLD">      0.00200000</i>
   <i name="RTIME">     -0.10000000</i>
   <i name="WPLASMAI">      0.00000000</i>
   <v name="DFIELD">      0.00000000      0.00000000      0.00000000</v>
   <v name="WPLASMA">      0.00000000      0.00000000      0.00000000      0.00000000      0.00000000      0.00000000      0.00000000      0.00000000      0.00000000</v>
  </separator>
  <separator name="orbital magnetization" >
   <i type="logical" name="NUCIND"> F  </i>
   <v name="MAGPOS">      0.00000000      0.00000000      0.00000000</v>
   <i type="logical" name="LNICSALL"> T  </i>
   <i type="logical" name="ORBITALMAG"> F  </i>
   <i type="logical" name="LMAGBLOCH"> F  </i>
   <i type="logical" name="LCHIMAG"> F  </i>
   <i type="logical" name="LGAUGE"> T  </i>
   <i type="int" name="MAGATOM">     0</i>
   <v name="MAGDIPOL">      0.00000000      0.00000000      0.00000000</v>
   <v name="AVECCONST">      0.00000000      0.00000000      0.00000000</v>
  </separator>
  <separator name="response functions" >
   <i type="logical" name="LADDER"> F  </i>
   <i type="logical" name="LRPAFORCE"> F  </i>
   <i type="logical" name="LFXC"> F  </i>
   <i type="logical" name="LHARTREE"> T  </i>
   <i type="int" name="IBSE">     0</i>
   <v type="int" name="KPOINT">    -1     0     0     0</v>
   <i type="logical" name="LTCTE"> F  </i>
   <i type="logical" name="LTETE"> F  </i>
   <i type="logical" name="LTRIPLET"> F  </i>
   <i type="logical" name="LFXCEPS"> F  </i>
   <i type="logical" name="LFXHEG"> F  </i>
   <i type="int" name="NATURALO">     2</i>
   <i type="logical" name="L2ORDER"> F  </i>
   <i type="logical" name="LMP2LT"> F  </i>
   <i type="logical" name="LUSEW"> F  </i>
   <i name="ENCUTGW">     -2.00000000</i>
   <i name="ENCUTGWSOFT">     -2.00000000</i>
   <i name="ENCUTLF">     -1.00000000</i>
   <i type="int" name="LMAXMP2">    -1</i>
   <i name="SCISSOR">      0.00000000</i>
   <i type="int" name="NOMEGA">     0</i>
   <i type="int" name="NOMEGAR">     0</i>
   <i type="int" name="NBANDSGW">    -1</i>
   <i type="int" name="NBANDSO">    -1</i>
   <i type="int" name="NBANDSV">    -1</i>
   <i type="int" name="NELM">     1</i>
   <i type="int" name="NELMHF">     1</i>
   <i type="int" name="DIM">     3</i>
   <i type="int" name="ANTIRES">     0</i>
   <i name="OMEGAMAX">    -30.00000000</i>
   <i name="OMEGAMIN">    -30.00000000</i>
   <i name="OMEGATL">   -200.00000000</i>
   <i type="int" name="OMEGAGRID">   140</i>
   <i name="CSHIFT">     -0.10000000</i>
   <i type="logical" name="SELFENERGY"> F  </i>
   <i type="logical" name="LSPECTRAL"> F  </i>
   <i type="logical" name="LSPECTRALGW"> F  </i>
   <i type="logical" name="LSINGLES"> F  </i>
   <i type="logical" name="LFERMIGW"> F  </i>
   <i type="logical" name="ODDONLYGW"> F  </i>
   <i type="logical" name="EVENONLYGW"> F  </i>
   <i type="int" name="NKREDLFX">     1</i>
   <i type="int" name="NKREDLFY">     1</i>
   <i type="int" name="NKREDLFZ">     1</i>
   <i type="int" name="MAXMEM">  2800</i>
   <i type="int" name="TELESCOPE">     0</i>
   <i type="int" name="TAUPAR">     1</i>
   <i type="int" name="OMEGAPAR">    -1</i>
   <i name="LAMBDA">      1.00000000</i>
  </separator>
  <separator name="External order field" >
   <i name="OFIELD_KAPPA">      0.00000000</i>
   <v name="OFIELD_K">      0.00000000      0.00000000      0.00000000</v>
   <i name="OFIELD_Q6_NEAR">      0.00000000</i>
   <i name="OFIELD_Q6_FAR">      0.00000000</i>
   <i name="OFIELD_A">      0.00000000</i>
  </separator>
 </parameters>
 <atominfo>
  <atoms>       2 </atoms>
  <types>       2 </types>
  <array name="atoms" >
   <dimension dim="1">ion</dimension>
   <field type="string">element</field>
   <field type="int">atomtype</field>
   <set>
    <rc><c>In</c><c>   1</c></rc>
    <rc><c>As</c><c>   2</c></rc>
   </set>
  </array>
  <array name="atomtypes" >
   <dimension dim="1">type</dimension>
   <field type="int">atomspertype</field>
   <field type="string">element</field>
   <field>mass</field>
   <field>valence</field>
   <field type="string">pseudopotential</field>
   <set>
    <rc><c>   1</c><c>In</c><c>    114.82000000</c><c>     13.00000000</c><c>  PAW_PBE In_d 06Sep2000                </c></rc>
    <rc><c>   1</c><c>As</c><c>     74.92200000</c><c>      5.00000000</c><c>  PAW_PBE As 22Sep2009                  </c></rc>
   </set>
  </array>
 </atominfo>
 <structure name="initialpos" >
  <crystal>
   <varray name="basis" >
    <v>       0.00000000       3.02920000       3.02920000 </v>
    <v>       3.02920000       0.00000000       3.02920000 </v>
    <v>       3.02920000       3.02920000       0.00000000 </v>
   </varray>
   <i name="volume">     55.59219731 </i>
   <varray name="rec_basis" >
    <v>      -0.16506008       0.16506008       0.16506008 </v>
    <v>       0.16506008      -0.16506008       0.16506008 </v>
    <v>       0.16506008       0.16506008      -0.16506008 </v>
   </varray>
  </crystal>
  <varray name="positions" >
   <v>       0.00000000       0.00000000       0.00000000 </v>
   <v>       0.75000000       0.75000000       0.75000000 </v>
  </varray>
 </structure>
 <calculation>
  <scstep>
   <time name="total">    0.16    0.30</time>
   <energy>
    <i name="alphaZ">     38.22227472 </i>
    <i name="ewald">  -1180.94574891 </i>
    <i name="hartreedc">   -574.28475018 </i>
    <i name="XCdc">     30.05432960 </i>
    <i name="pawpsdc">   1528.00464014 </i>
    <i name="pawaedc">  -1497.26050993 </i>
    <i name="eentropy">     -0.00069613 </i>
    <i name="bandstr">    100.15009244 </i>
    <i name="atom">   1747.01046045 </i>
    <i name="e_fr_energy">    190.95009218 </i>
    <i name="e_wo_entrp">    190.95078831 </i>
    <i name="e_0_energy">    190.95032423 </i>
   </energy>
  </scstep>
  <scstep>
   <time name="total">    0.08    0.08</time>
   <energy>
    <i name="e_fr_energy">     56.47339093 </i>
    <i name="e_wo_entrp">     56.47346142 </i>
    <i name="e_0_energy">     56.47341443 </i>
   </energy>
  </scstep>
  <scstep>
   <time name="total">    0.07    0.07</time>
   <energy>
    <i name="e_fr_energy">     13.05899855 </i>
    <i name="e_wo_entrp">     13.05931352 </i>
    <i name="e_0_energy">     13.05910354 </i>
   </energy>
  </scstep>
  <scstep>
   <time name="total">    0.08    0.08</time>
   <energy>
    <i name="e_fr_energy">     -3.90121674 </i>
    <i name="e_wo_entrp">     -3.90117889 </i>
    <i name="e_0_energy">     -3.90120412 </i>
   </energy>
  </scstep>
  <scstep>
   <time name="total">    0.14    0.24</time>
   <energy>
    <i name="e_fr_energy">     -6.88654380 </i>
    <i name="e_wo_entrp">     -6.88654803 </i>
    <i name="e_0_energy">     -6.88654521 </i>
   </energy>
  </scstep>
  <scstep>
   <time name="total">    0.08    0.08</time>
   <energy>
    <i name="e_fr_energy">     -6.60417989 </i>
    <i name="e_wo_entrp">     -6.60418411 </i>
    <i name="e_0_energy">     -6.60418129 </i>
   </energy>
  </scstep>
  <scstep>
   <time name="total">    0.08    0.08</time>
   <energy>
    <i name="e_fr_energy">     -7.17053015 </i>
    <i name="e_wo_entrp">     -7.17053437 </i>
    <i name="e_0_energy">     -7.17053156 </i>
   </energy>
  </scstep>
  <scstep>
   <time name="total">    0.07    0.07</time>
   <energy>
    <i name="e_fr_energy">     -7.48929419 </i>
    <i name="e_wo_entrp">     -7.48929841 </i>
    <i name="e_0_energy">     -7.48929560 </i>
   </energy>
  </scstep>
  <scstep>
   <time name="total">    0.07    0.07</time>
   <energy>
    <i name="e_fr_energy">     -7.60728124 </i>
    <i name="e_wo_entrp">     -7.60728554 </i>
    <i name="e_0_energy">     -7.60728267 </i>
   </energy>
  </scstep>
  <scstep>
   <time name="total">    0.07    0.07</time>
   <energy>
    <i name="e_fr_energy">     -7.65920809 </i>
    <i name="e_wo_entrp">     -7.65921292 </i>
    <i name="e_0_energy">     -7.65920970 </i>
   </energy>
  </scstep>
  <scstep>
   <time name="total">    0.07    0.07</time>
   <energy>
    <i name="e_fr_energy">     -7.69014166 </i>
    <i name="e_wo_entrp">     -7.69014780 </i>
    <i name="e_0_energy">     -7.69014371 </i>
   </energy>
  </scstep>
  <scstep>
   <time name="total">    0.07    0.07</time>
   <energy>
    <i name="e_fr_energy">     -7.70509159 </i>
    <i name="e_wo_entrp">     -7.70509958 </i>
    <i name="e_0_energy">     -7.70509425 </i>
   </energy>
  </scstep>
  <scstep>
   <time name="total">    0.07    0.07</time>
   <energy>
    <i name="e_fr_energy">     -7.71247653 </i>
    <i name="e_wo_entrp">     -7.71248576 </i>
    <i name="e_0_energy">     -7.71247960 </i>
   </energy>
  </scstep>
  <scstep>
   <time name="total">    0.08    0.08</time>
   <energy>
    <i name="e_fr_energy">     -7.71630608 </i>
    <i name="e_wo_entrp">     -7.71631035 </i>
    <i name="e_0_energy">     -7.71630750 </i>
   </energy>
  </scstep>
  <scstep>
   <time name="total">    0.07    0.07</time>
   <energy>
    <i name="e_fr_energy">     -7.71829419 </i>
    <i name="e_wo_entrp">     -7.71831085 </i>
    <i name="e_0_energy">     -7.71829975 </i>
   </energy>
  </scstep>
  <scstep>
   <time name="total">    0.07    0.07</time>
   <energy>
    <i name="e_fr_energy">     -7.71933674 </i>
    <i name="e_wo_entrp">     -7.71934796 </i>
    <i name="e_0_energy">     -7.71934048 </i>
   </energy>
  </scstep>
  <scstep>
   <time name="total">    0.07    0.07</time>
   <energy>
    <i name="e_fr_energy">     -7.71987418 </i>
    <i name="e_wo_entrp">     -7.71985431 </i>
    <i name="e_0_energy">     -7.71986756 </i>
   </energy>
  </scstep>
  <scstep>
   <time name="total">    0.07    0.07</time>
   <energy>
    <i name="e_fr_energy">     -7.72017198 </i>
    <i name="e_wo_entrp">     -7.72013180 </i>
    <i name="e_0_energy">     -7.72015859 </i>
   </energy>
  </scstep>
  <scstep>
   <time name="total">    0.07    0.07</time>
   <energy>
    <i name="e_fr_energy">     -7.72032413 </i>
    <i name="e_wo_entrp">     -7.72028123 </i>
    <i name="e_0_energy">     -7.72030983 </i>
   </energy>
  </scstep>
  <scstep>
   <time name="total">    0.07    0.07</time>
   <energy>
    <i name="e_fr_energy">     -7.72039213 </i>
    <i name="e_wo_entrp">     -7.72034588 </i>
    <i name="e_0_energy">     -7.72037671 </i>
   </energy>
  </scstep>
  <scstep>
   <time name="total">    0.07    0.07</time>
   <energy>
    <i name="e_fr_energy">     -7.72042684 </i>
    <i name="e_wo_entrp">     -7.72036229 </i>
    <i name="e_0_energy">     -7.72040532 </i>
   </energy>
  </scstep>
  <scstep>
   <time name="total">    0.07    0.07</time>
   <energy>
    <i name="e_fr_energy">     -7.72045985 </i>
    <i name="e_wo_entrp">     -7.72038417 </i>
    <i name="e_0_energy">     -7.72043463 </i>
   </energy>
  </scstep>
  <scstep>
   <time name="total">    0.07    0.07</time>
   <energy>
    <i name="e_fr_energy">     -7.72047753 </i>
    <i name="e_wo_entrp">     -7.72039744 </i>
    <i name="e_0_energy">     -7.72045084 </i>
   </energy>
  </scstep>
  <scstep>
   <time name="total">    0.08    0.08</time>
   <energy>
    <i name="alphaZ">     38.22227472 </i>
    <i name="ewald">  -1180.94574891 </i>
    <i name="hartreedc">   -570.63348704 </i>
    <i name="XCdc">     30.26403621 </i>
    <i name="pawpsdc">   2334.53296799 </i>
    <i name="pawaedc">  -2304.72958952 </i>
    <i name="eentropy">     -0.00008160 </i>
    <i name="bandstr">   -101.44131842 </i>
    <i name="atom">   1747.01046045 </i>
    <i name="e_fr_energy">     -7.72048462 </i>
    <i name="e_wo_entrp">     -7.72040302 </i>
    <i name="e_0_energy">     -7.72045742 </i>
   </energy>
  </scstep>
  <structure>
   <crystal>
    <varray name="basis" >
     <v>       0.00000000       3.02920000       3.02920000 </v>
     <v>       3.02920000       0.00000000       3.02920000 </v>
     <v>       3.02920000       3.02920000       0.00000000 </v>
    </varray>
    <i name="volume">     55.59219731 </i>
    <varray name="rec_basis" >
     <v>      -0.16506008       0.16506008       0.16506008 </v>
     <v>       0.16506008      -0.16506008       0.16506008 </v>
     <v>       0.16506008       0.16506008      -0.16506008 </v>
    </varray>
   </crystal>
   <varray name="positions" >
    <v>       0.00000000       0.00000000       0.00000000 </v>
    <v>       0.75000000       0.75000000       0.75000000 </v>
   </varray>
  </structure>
  <varray name="forces" >
   <v>       0.00000000       0.00000000       0.00000000 </v>
   <v>      -0.00000000      -0.00000000      -0.00000000 </v>
  </varray>
  <varray name="stress" >
   <v>      35.90056045      -0.00000000       0.00000000 </v>
   <v>       0.00000000      35.90056045       0.00000000 </v>
   <v>       0.00000000       0.00000000      35.90056045 </v>
  </varray>
  <energy>
   <i name="e_fr_energy">     -7.72048462 </i>
   <i name="e_wo_entrp">     -7.72045742 </i>
   <i name="e_0_energy">     -0.00008160 </i>
  </energy>
  <time name="totalsc">    2.36    3.15</time>
  <eigenvalues>
   <array>
    <dimension dim="1">band</dimension>
    <dimension dim="2">kpoint</dimension>
    <dimension dim="3">spin</dimension>
    <field>eigene</field>
    <field>occ</field>
    <set>
     <set comment="spin 1">
      <set comment="kpoint 1">
       <r>  -10.3880    1.0000 </r>
       <r>  -10.3880    1.0000 </r>
       <r>  -10.3880    1.0000 </r>
       <r>  -10.3880    1.0000 </r>
       <r>   -9.5957    1.0000 </r>
       <r>   -9.5957    1.0000 </r>
       <r>   -9.5117    1.0000 </r>
       <r>   -9.5117    1.0000 </r>
       <r>   -9.5116    1.0000 </r>
       <r>   -9.5116    1.0000 </r>
       <r>   -7.3713    1.0000 </r>
       <r>   -7.3713    1.0000 </r>
       <r>    4.2241    1.0000 </r>
       <r>    4.2241    1.0000 </r>
       <r>    4.2290    1.0000 </r>
       <r>    4.2290    1.0000 </r>
       <r>    4.5647    0.5299 </r>
       <r>    4.5648    0.5284 </r>
       <r>    4.5648    0.5158 </r>
       <r>    4.5648    0.4259 </r>
       <r>    8.4086    0.0000 </r>
      </set>
      <set comment="kpoint 2">
       <r>  -10.3928    1.0000 </r>
       <r>  -10.3928    1.0000 </r>
       <r>  -10.3901    1.0000 </r>
       <r>  -10.3828    1.0000 </r>
       <r>   -9.6005    1.0000 </r>
       <r>   -9.6005    1.0000 </r>
       <r>   -9.5211    1.0000 </r>
       <r>   -9.5211    1.0000 </r>
       <r>   -9.5102    1.0000 </r>
       <r>   -9.5013    1.0000 </r>
       <r>   -7.1630    1.0000 </r>
       <r>   -7.1630    1.0000 </r>
       <r>    2.2967    1.0000 </r>
       <r>    2.2967    1.0000 </r>
       <r>    4.0924    1.0000 </r>
       <r>    4.0924    1.0000 </r>
       <r>    4.3213    1.0000 </r>
       <r>    4.3318    1.0000 </r>
       <r>    5.6143   -0.0000 </r>
       <r>    5.6143   -0.0000 </r>
       <r>    8.5430    0.0000 </r>
      </set>
      <set comment="kpoint 3">
       <r>  -10.4045    1.0000 </r>
       <r>  -10.4045    1.0000 </r>
       <r>  -10.3877    1.0000 </r>
       <r>  -10.3787    1.0000 </r>
       <r>   -9.6099    1.0000 </r>
       <r>   -9.6099    1.0000 </r>
       <r>   -9.5374    1.0000 </r>
       <r>   -9.5374    1.0000 </r>
       <r>   -9.4975    1.0000 </r>
       <r>   -9.4864    1.0000 </r>
       <r>   -6.6131    1.0000 </r>
       <r>   -6.6131    1.0000 </r>
       <r>    0.2976    1.0000 </r>
       <r>    0.2976    1.0000 </r>
       <r>    3.6613    1.0000 </r>
       <r>    3.6613    1.0000 </r>
       <r>    3.8968    1.0000 </r>
       <r>    3.9080    1.0000 </r>
       <r>    5.6258   -0.0000 </r>
       <r>    5.6258   -0.0000 </r>
       <r>    9.1037    0.0000 </r>
      </set>
      <set comment="kpoint 4">
       <r>  -10.4150    1.0000 </r>
       <r>  -10.4150    1.0000 </r>
       <r>  -10.3829    1.0000 </r>
       <r>  -10.3789    1.0000 </r>
       <r>   -9.6161    1.0000 </r>
       <r>   -9.6161    1.0000 </r>
       <r>   -9.5468    1.0000 </r>
       <r>   -9.5468    1.0000 </r>
       <r>   -9.4829    1.0000 </r>
       <r>   -9.4780    1.0000 </r>
       <r>   -6.0223    1.0000 </r>
       <r>   -6.0223    1.0000 </r>
       <r>   -1.0763    1.0000 </r>
       <r>   -1.0763    1.0000 </r>
       <r>    3.3833    1.0000 </r>
       <r>    3.3833    1.0000 </r>
       <r>    3.6260    1.0000 </r>
       <r>    3.6307    1.0000 </r>
       <r>    5.4239   -0.0000 </r>
       <r>    5.4239   -0.0000 </r>
       <r>    9.0707    0.0000 </r>
      </set>
      <set comment="kpoint 5">
       <r>  -10.4150    1.0000 </r>
       <r>  -10.4150    1.0000 </r>
       <r>  -10.3829    1.0000 </r>
       <r>  -10.3789    1.0000 </r>
       <r>   -9.6161    1.0000 </r>
       <r>   -9.6161    1.0000 </r>
       <r>   -9.5468    1.0000 </r>
       <r>   -9.5468    1.0000 </r>
       <r>   -9.4829    1.0000 </r>
       <r>   -9.4780    1.0000 </r>
       <r>   -6.0223    1.0000 </r>
       <r>   -6.0223    1.0000 </r>
       <r>   -1.0763    1.0000 </r>
       <r>   -1.0763    1.0000 </r>
       <r>    3.3833    1.0000 </r>
       <r>    3.3833    1.0000 </r>
       <r>    3.6260    1.0000 </r>
       <r>    3.6307    1.0000 </r>
       <r>    5.4239   -0.0000 </r>
       <r>    5.4239   -0.0000 </r>
       <r>    9.1156    0.0000 </r>
      </set>
      <set comment="kpoint 6">
       <r>  -10.4045    1.0000 </r>
       <r>  -10.4045    1.0000 </r>
       <r>  -10.3877    1.0000 </r>
       <r>  -10.3787    1.0000 </r>
       <r>   -9.6099    1.0000 </r>
       <r>   -9.6099    1.0000 </r>
       <r>   -9.5374    1.0000 </r>
       <r>   -9.5374    1.0000 </r>
       <r>   -9.4975    1.0000 </r>
       <r>   -9.4864    1.0000 </r>
       <r>   -6.6131    1.0000 </r>
       <r>   -6.6131    1.0000 </r>
       <r>    0.2976    1.0000 </r>
       <r>    0.2976    1.0000 </r>
       <r>    3.6613    1.0000 </r>
       <r>    3.6613    1.0000 </r>
       <r>    3.8968    1.0000 </r>
       <r>    3.9081    1.0000 </r>
       <r>    5.6258   -0.0000 </r>
       <r>    5.6258   -0.0000 </r>
       <r>    9.0855    0.0000 </r>
      </set>
      <set comment="kpoint 7">
       <r>  -10.3928    1.0000 </r>
       <r>  -10.3928    1.0000 </r>
       <r>  -10.3901    1.0000 </r>
       <r>  -10.3828    1.0000 </r>
       <r>   -9.6005    1.0000 </r>
       <r>   -9.6005    1.0000 </r>
       <r>   -9.5211    1.0000 </r>
       <r>   -9.5211    1.0000 </r>
       <r>   -9.5102    1.0000 </r>
       <r>   -9.5013    1.0000 </r>
       <r>   -7.1630    1.0000 </r>
       <r>   -7.1630    1.0000 </r>
       <r>    2.2967    1.0000 </r>
       <r>    2.2967    1.0000 </r>
       <r>    4.0923    1.0000 </r>
       <r>    4.0924    1.0000 </r>
       <r>    4.3213    1.0000 </r>
       <r>    4.3318    1.0000 </r>
       <r>    5.6143   -0.0000 </r>
       <r>    5.6143   -0.0000 </r>
       <r>    8.5902    0.0000 </r>
      </set>
      <set comment="kpoint 8">
       <r>  -10.3994    1.0000 </r>
       <r>  -10.3994    1.0000 </r>
       <r>  -10.3808    1.0000 </r>
       <r>  -10.3808    1.0000 </r>
       <r>   -9.6040    1.0000 </r>
       <r>   -9.6040    1.0000 </r>
       <r>   -9.5154    1.0000 </r>
       <r>   -9.5154    1.0000 </r>
       <r>   -9.5097    1.0000 </r>
       <r>   -9.5097    1.0000 </r>
       <r>   -7.0944    1.0000 </r>
       <r>   -7.0944    1.0000 </r>
       <r>    2.2306    1.0000 </r>
       <r>    2.2306    1.0000 </r>
       <r>    3.7282    1.0000 </r>
       <r>    3.7282    1.0000 </r>
       <r>    3.8669    1.0000 </r>
       <r>    3.8669    1.0000 </r>
       <r>    6.3902    0.0000 </r>
       <r>    7.0117    0.0000 </r>
       <r>    7.5166    0.0000 </r>
      </set>
      <set comment="kpoint 9">
       <r>  -10.4195    1.0000 </r>
       <r>  -10.4027    1.0000 </r>
       <r>  -10.3789    1.0000 </r>
       <r>  -10.3715    1.0000 </r>
       <r>   -9.6314    1.0000 </r>
       <r>   -9.5977    1.0000 </r>
       <r>   -9.5274    1.0000 </r>
       <r>   -9.5218    1.0000 </r>
       <r>   -9.5013    1.0000 </r>
       <r>   -9.4956    1.0000 </r>
       <r>   -6.6596    1.0000 </r>
       <r>   -6.6535    1.0000 </r>
       <r>    0.7482    1.0000 </r>
       <r>    0.7503    1.0000 </r>
       <r>    3.1852    1.0000 </r>
       <r>    3.2118    1.0000 </r>
       <r>    3.3751    1.0000 </r>
       <r>    3.3806    1.0000 </r>
       <r>    6.7482    0.0000 </r>
       <r>    6.7484    0.0000 </r>
       <r>    7.7912    0.0000 </r>
      </set>
      <set comment="kpoint 10">
       <r>  -10.4397    1.0000 </r>
       <r>  -10.4052    1.0000 </r>
       <r>  -10.3758    1.0000 </r>
       <r>  -10.3660    1.0000 </r>
       <r>   -9.6573    1.0000 </r>
       <r>   -9.5863    1.0000 </r>
       <r>   -9.5424    1.0000 </r>
       <r>   -9.5298    1.0000 </r>
       <r>   -9.4867    1.0000 </r>
       <r>   -9.4840    1.0000 </r>
       <r>   -6.0536    1.0000 </r>
       <r>   -6.0445    1.0000 </r>
       <r>   -0.7184    1.0000 </r>
       <r>   -0.7016    1.0000 </r>
       <r>    2.6167    1.0000 </r>
       <r>    2.6419    1.0000 </r>
       <r>    3.1395    1.0000 </r>
       <r>    3.1416    1.0000 </r>
       <r>    6.5489    0.0000 </r>
       <r>    6.5550    0.0000 </r>
       <r>    8.5722    0.0000 </r>
      </set>
      <set comment="kpoint 11">
       <r>  -10.4459    1.0000 </r>
       <r>  -10.4065    1.0000 </r>
       <r>  -10.3730    1.0000 </r>
       <r>  -10.3652    1.0000 </r>
       <r>   -9.6656    1.0000 </r>
       <r>   -9.5776    1.0000 </r>
       <r>   -9.5526    1.0000 </r>
       <r>   -9.5320    1.0000 </r>
       <r>   -9.4820    1.0000 </r>
       <r>   -9.4800    1.0000 </r>
       <r>   -5.8092    1.0000 </r>
       <r>   -5.7998    1.0000 </r>
       <r>   -1.1935    1.0000 </r>
       <r>   -1.1689    1.0000 </r>
       <r>    2.2991    1.0000 </r>
       <r>    2.3151    1.0000 </r>
       <r>    3.2600    1.0000 </r>
       <r>    3.2674    1.0000 </r>
       <r>    6.4823    0.0000 </r>
       <r>    6.4838    0.0000 </r>
       <r>    8.7719    0.0000 </r>
      </set>
      <set comment="kpoint 12">
       <r>  -10.4337    1.0000 </r>
       <r>  -10.4048    1.0000 </r>
       <r>  -10.3732    1.0000 </r>
       <r>  -10.3698    1.0000 </r>
       <r>   -9.6534    1.0000 </r>
       <r>   -9.5815    1.0000 </r>
       <r>   -9.5474    1.0000 </r>
       <r>   -9.5281    1.0000 </r>
       <r>   -9.4910    1.0000 </r>
       <r>   -9.4854    1.0000 </r>
       <r>   -6.2559    1.0000 </r>
       <r>   -6.2450    1.0000 </r>
       <r>   -0.2896    1.0000 </r>
       <r>   -0.2712    1.0000 </r>
       <r>    2.3958    1.0000 </r>
       <r>    2.4088    1.0000 </r>
       <r>    3.6650    1.0000 </r>
       <r>    3.6774    1.0000 </r>
       <r>    6.5758    0.0000 </r>
       <r>    6.5902    0.0000 </r>
       <r>    9.1044    0.0000 </r>
      </set>
      <set comment="kpoint 13">
       <r>  -10.4104    1.0000 </r>
       <r>  -10.3999    1.0000 </r>
       <r>  -10.3796    1.0000 </r>
       <r>  -10.3776    1.0000 </r>
       <r>   -9.6251    1.0000 </r>
       <r>   -9.5916    1.0000 </r>
       <r>   -9.5329    1.0000 </r>
       <r>   -9.5222    1.0000 </r>
       <r>   -9.5039    1.0000 </r>
       <r>   -9.4959    1.0000 </r>
       <r>   -6.8428    1.0000 </r>
       <r>   -6.8358    1.0000 </r>
       <r>    1.2022    1.0000 </r>
       <r>    1.2047    1.0000 </r>
       <r>    3.0764    1.0000 </r>
       <r>    3.0970    1.0000 </r>
       <r>    4.1271    1.0000 </r>
       <r>    4.1422    1.0000 </r>
       <r>    6.4170    0.0000 </r>
       <r>    6.4195    0.0000 </r>
       <r>    8.6126    0.0000 </r>
      </set>
      <set comment="kpoint 14">
       <r>  -10.4240    1.0000 </r>
       <r>  -10.4240    1.0000 </r>
       <r>  -10.3666    1.0000 </r>
       <r>  -10.3666    1.0000 </r>
       <r>   -9.6259    1.0000 </r>
       <r>   -9.6259    1.0000 </r>
       <r>   -9.5089    1.0000 </r>
       <r>   -9.5089    1.0000 </r>
       <r>   -9.5018    1.0000 </r>
       <r>   -9.5018    1.0000 </r>
       <r>   -6.3612    1.0000 </r>
       <r>   -6.3612    1.0000 </r>
       <r>    0.3051    1.0000 </r>
       <r>    0.3051    1.0000 </r>
       <r>    2.7796    1.0000 </r>
       <r>    2.7796    1.0000 </r>
       <r>    2.8409    1.0000 </r>
       <r>    2.8409    1.0000 </r>
       <r>    6.5139    0.0000 </r>
       <r>    6.5153    0.0000 </r>
       <r>    7.1990    0.0000 </r>
      </set>
      <set comment="kpoint 15">
       <r>  -10.4514    1.0000 </r>
       <r>  -10.4185    1.0000 </r>
       <r>  -10.3646    1.0000 </r>
       <r>  -10.3557    1.0000 </r>
       <r>   -9.6663    1.0000 </r>
       <r>   -9.6028    1.0000 </r>
       <r>   -9.5148    1.0000 </r>
       <r>   -9.5110    1.0000 </r>
       <r>   -9.4957    1.0000 </r>
       <r>   -9.4856    1.0000 </r>
       <r>   -5.8580    1.0000 </r>
       <r>   -5.8506    1.0000 </r>
       <r>   -0.6487    1.0000 </r>
       <r>   -0.6304    1.0000 </r>
       <r>    2.0666    1.0000 </r>
       <r>    2.0902    1.0000 </r>
       <r>    2.5616    1.0000 </r>
       <r>    2.5628    1.0000 </r>
       <r>    6.5779    0.0000 </r>
       <r>    6.6009    0.0000 </r>
       <r>    7.5767    0.0000 </r>
      </set>
      <set comment="kpoint 16">
       <r>  -10.4659    1.0000 </r>
       <r>  -10.4123    1.0000 </r>
       <r>  -10.3642    1.0000 </r>
       <r>  -10.3477    1.0000 </r>
       <r>   -9.6929    1.0000 </r>
       <r>   -9.5809    1.0000 </r>
       <r>   -9.5255    1.0000 </r>
       <r>   -9.5183    1.0000 </r>
       <r>   -9.4892    1.0000 </r>
       <r>   -9.4799    1.0000 </r>
       <r>   -5.5202    1.0000 </r>
       <r>   -5.5115    1.0000 </r>
       <r>   -1.1711    1.0000 </r>
       <r>   -1.1254    1.0000 </r>
       <r>    1.3376    1.0000 </r>
       <r>    1.3479    1.0000 </r>
       <r>    2.6827    1.0000 </r>
       <r>    2.6880    1.0000 </r>
       <r>    6.7026    0.0000 </r>
       <r>    6.7055    0.0000 </r>
       <r>    9.0543    0.0000 </r>
      </set>
      <set comment="kpoint 17">
       <r>  -10.4590    1.0000 </r>
       <r>  -10.4087    1.0000 </r>
       <r>  -10.3669    1.0000 </r>
       <r>  -10.3507    1.0000 </r>
       <r>   -9.6884    1.0000 </r>
       <r>   -9.5684    1.0000 </r>
       <r>   -9.5455    1.0000 </r>
       <r>   -9.5208    1.0000 </r>
       <r>   -9.4865    1.0000 </r>
       <r>   -9.4833    1.0000 </r>
       <r>   -5.7503    1.0000 </r>
       <r>   -5.7379    1.0000 </r>
       <r>   -0.8618    1.0000 </r>
       <r>   -0.8147    1.0000 </r>
       <r>    1.3206    1.0000 </r>
       <r>    1.3220    1.0000 </r>
       <r>    3.1324    1.0000 </r>
       <r>    3.1418    1.0000 </r>
       <r>    6.9740    0.0000 </r>
       <r>    6.9980    0.0000 </r>
       <r>    9.6327    0.0000 </r>
      </set>
      <set comment="kpoint 18">
       <r>  -10.4337    1.0000 </r>
       <r>  -10.4048    1.0000 </r>
       <r>  -10.3732    1.0000 </r>
       <r>  -10.3698    1.0000 </r>
       <r>   -9.6534    1.0000 </r>
       <r>   -9.5815    1.0000 </r>
       <r>   -9.5474    1.0000 </r>
       <r>   -9.5281    1.0000 </r>
       <r>   -9.4910    1.0000 </r>
       <r>   -9.4854    1.0000 </r>
       <r>   -6.2559    1.0000 </r>
       <r>   -6.2450    1.0000 </r>
       <r>   -0.2896    1.0000 </r>
       <r>   -0.2712    1.0000 </r>
       <r>    2.3958    1.0000 </r>
       <r>    2.4088    1.0000 </r>
       <r>    3.6650    1.0000 </r>
       <r>    3.6774    1.0000 </r>
       <r>    6.5759    0.0000 </r>
       <r>    6.5901    0.0000 </r>
       <r>    9.3038    0.0000 </r>
      </set>
      <set comment="kpoint 19">
       <r>  -10.4442    1.0000 </r>
       <r>  -10.4442    1.0000 </r>
       <r>  -10.3559    1.0000 </r>
       <r>  -10.3559    1.0000 </r>
       <r>   -9.6403    1.0000 </r>
       <r>   -9.6403    1.0000 </r>
       <r>   -9.5071    1.0000 </r>
       <r>   -9.5071    1.0000 </r>
       <r>   -9.4842    1.0000 </r>
       <r>   -9.4842    1.0000 </r>
       <r>   -5.5383    1.0000 </r>
       <r>   -5.5383    1.0000 </r>
       <r>   -1.1251    1.0000 </r>
       <r>   -1.1251    1.0000 </r>
       <r>    2.2112    1.0000 </r>
       <r>    2.2112    1.0000 </r>
       <r>    2.2301    1.0000 </r>
       <r>    2.2301    1.0000 </r>
       <r>    6.0515    0.0000 </r>
       <r>    6.0605    0.0000 </r>
       <r>    6.6319    0.0000 </r>
      </set>
      <set comment="kpoint 20">
       <r>  -10.4649    1.0000 </r>
       <r>  -10.4261    1.0000 </r>
       <r>  -10.3584    1.0000 </r>
       <r>  -10.3489    1.0000 </r>
       <r>   -9.6792    1.0000 </r>
       <r>   -9.6055    1.0000 </r>
       <r>   -9.5118    1.0000 </r>
       <r>   -9.4993    1.0000 </r>
       <r>   -9.4974    1.0000 </r>
       <r>   -9.4767    1.0000 </r>
       <r>   -5.3705    1.0000 </r>
       <r>   -5.3664    1.0000 </r>
       <r>   -1.3285    1.0000 </r>
       <r>   -1.2986    1.0000 </r>
       <r>    1.6328    1.0000 </r>
       <r>    1.6505    1.0000 </r>
       <r>    2.2701    1.0000 </r>
       <r>    2.2720    1.0000 </r>
       <r>    6.3024    0.0000 </r>
       <r>    6.3281    0.0000 </r>
       <r>    7.3232    0.0000 </r>
      </set>
      <set comment="kpoint 21">
       <r>  -10.4659    1.0000 </r>
       <r>  -10.4123    1.0000 </r>
       <r>  -10.3642    1.0000 </r>
       <r>  -10.3477    1.0000 </r>
       <r>   -9.6929    1.0000 </r>
       <r>   -9.5809    1.0000 </r>
       <r>   -9.5255    1.0000 </r>
       <r>   -9.5183    1.0000 </r>
       <r>   -9.4892    1.0000 </r>
       <r>   -9.4799    1.0000 </r>
       <r>   -5.5202    1.0000 </r>
       <r>   -5.5115    1.0000 </r>
       <r>   -1.1711    1.0000 </r>
       <r>   -1.1254    1.0000 </r>
       <r>    1.3376    1.0000 </r>
       <r>    1.3479    1.0000 </r>
       <r>    2.6827    1.0000 </r>
       <r>    2.6880    1.0000 </r>
       <r>    6.7039    0.0000 </r>
       <r>    6.7042    0.0000 </r>
       <r>    9.3762    0.0000 </r>
      </set>
      <set comment="kpoint 22">
       <r>  -10.4459    1.0000 </r>
       <r>  -10.4065    1.0000 </r>
       <r>  -10.3730    1.0000 </r>
       <r>  -10.3652    1.0000 </r>
       <r>   -9.6656    1.0000 </r>
       <r>   -9.5776    1.0000 </r>
       <r>   -9.5526    1.0000 </r>
       <r>   -9.5320    1.0000 </r>
       <r>   -9.4820    1.0000 </r>
       <r>   -9.4800    1.0000 </r>
       <r>   -5.8092    1.0000 </r>
       <r>   -5.7998    1.0000 </r>
       <r>   -1.1935    1.0000 </r>
       <r>   -1.1689    1.0000 </r>
       <r>    2.2991    1.0000 </r>
       <r>    2.3151    1.0000 </r>
       <r>    3.2600    1.0000 </r>
       <r>    3.2674    1.0000 </r>
       <r>    6.4824    0.0000 </r>
       <r>    6.4837    0.0000 </r>
       <r>    8.7728    0.0000 </r>
      </set>
      <set comment="kpoint 23">
       <r>  -10.4514    1.0000 </r>
       <r>  -10.4185    1.0000 </r>
       <r>  -10.3646    1.0000 </r>
       <r>  -10.3557    1.0000 </r>
       <r>   -9.6663    1.0000 </r>
       <r>   -9.6028    1.0000 </r>
       <r>   -9.5148    1.0000 </r>
       <r>   -9.5110    1.0000 </r>
       <r>   -9.4957    1.0000 </r>
       <r>   -9.4856    1.0000 </r>
       <r>   -5.8580    1.0000 </r>
       <r>   -5.8506    1.0000 </r>
       <r>   -0.6487    1.0000 </r>
       <r>   -0.6304    1.0000 </r>
       <r>    2.0666    1.0000 </r>
       <r>    2.0902    1.0000 </r>
       <r>    2.5616    1.0000 </r>
       <r>    2.5628    1.0000 </r>
       <r>    6.5876    0.0000 </r>
       <r>    6.5898    0.0000 </r>
       <r>    7.5641    0.0000 </r>
      </set>
      <set comment="kpoint 24">
       <r>  -10.4397    1.0000 </r>
       <r>  -10.4052    1.0000 </r>
       <r>  -10.3758    1.0000 </r>
       <r>  -10.3660    1.0000 </r>
       <r>   -9.6573    1.0000 </r>
       <r>   -9.5863    1.0000 </r>
       <r>   -9.5424    1.0000 </r>
       <r>   -9.5298    1.0000 </r>
       <r>   -9.4867    1.0000 </r>
       <r>   -9.4840    1.0000 </r>
       <r>   -6.0536    1.0000 </r>
       <r>   -6.0445    1.0000 </r>
       <r>   -0.7184    1.0000 </r>
       <r>   -0.7016    1.0000 </r>
       <r>    2.6167    1.0000 </r>
       <r>    2.6419    1.0000 </r>
       <r>    3.1395    1.0000 </r>
       <r>    3.1416    1.0000 </r>
       <r>    6.5489    0.0000 </r>
       <r>    6.5550    0.0000 </r>
       <r>    8.5693    0.0000 </r>
      </set>
      <set comment="kpoint 25">
       <r>  -10.4195    1.0000 </r>
       <r>  -10.4027    1.0000 </r>
       <r>  -10.3789    1.0000 </r>
       <r>  -10.3715    1.0000 </r>
       <r>   -9.6314    1.0000 </r>
       <r>   -9.5977    1.0000 </r>
       <r>   -9.5274    1.0000 </r>
       <r>   -9.5218    1.0000 </r>
       <r>   -9.5013    1.0000 </r>
       <r>   -9.4956    1.0000 </r>
       <r>   -6.6596    1.0000 </r>
       <r>   -6.6535    1.0000 </r>
       <r>    0.7482    1.0000 </r>
       <r>    0.7503    1.0000 </r>
       <r>    3.1852    1.0000 </r>
       <r>    3.2118    1.0000 </r>
       <r>    3.3751    1.0000 </r>
       <r>    3.3806    1.0000 </r>
       <r>    6.7482    0.0000 </r>
       <r>    6.8769    0.0000 </r>
       <r>    7.7811    0.0000 </r>
      </set>
      <set comment="kpoint 26">
       <r>  -10.4426    1.0000 </r>
       <r>  -10.4076    1.0000 </r>
       <r>  -10.3706    1.0000 </r>
       <r>  -10.3612    1.0000 </r>
       <r>   -9.6629    1.0000 </r>
       <r>   -9.5874    1.0000 </r>
       <r>   -9.5309    1.0000 </r>
       <r>   -9.5188    1.0000 </r>
       <r>   -9.4925    1.0000 </r>
       <r>   -9.4909    1.0000 </r>
       <r>   -6.1818    1.0000 </r>
       <r>   -6.1708    1.0000 </r>
       <r>   -0.1612    1.0000 </r>
       <r>   -0.1409    1.0000 </r>
       <r>    2.1251    1.0000 </r>
       <r>    2.1361    1.0000 </r>
       <r>    3.0887    1.0000 </r>
       <r>    3.1176    1.0000 </r>
       <r>    7.4471    0.0000 </r>
       <r>    7.6969    0.0000 </r>
       <r>    7.8328    0.0000 </r>
      </set>
      <set comment="kpoint 27">
       <r>  -10.4612    1.0000 </r>
       <r>  -10.4081    1.0000 </r>
       <r>  -10.3661    1.0000 </r>
       <r>  -10.3523    1.0000 </r>
       <r>   -9.6893    1.0000 </r>
       <r>   -9.5711    1.0000 </r>
       <r>   -9.5400    1.0000 </r>
       <r>   -9.5201    1.0000 </r>
       <r>   -9.4861    1.0000 </r>
       <r>   -9.4833    1.0000 </r>
       <r>   -5.6802    1.0000 </r>
       <r>   -5.6694    1.0000 </r>
       <r>   -1.0128    1.0000 </r>
       <r>   -0.9726    1.0000 </r>
       <r>    1.5926    1.0000 </r>
       <r>    1.6016    1.0000 </r>
       <r>    2.6913    1.0000 </r>
       <r>    2.7213    1.0000 </r>
       <r>    7.4913    0.0000 </r>
       <r>    7.5188    0.0000 </r>
       <r>    8.4976    0.0000 </r>
      </set>
      <set comment="kpoint 28">
       <r>  -10.4612    1.0000 </r>
       <r>  -10.4081    1.0000 </r>
       <r>  -10.3661    1.0000 </r>
       <r>  -10.3523    1.0000 </r>
       <r>   -9.6893    1.0000 </r>
       <r>   -9.5711    1.0000 </r>
       <r>   -9.5400    1.0000 </r>
       <r>   -9.5201    1.0000 </r>
       <r>   -9.4861    1.0000 </r>
       <r>   -9.4833    1.0000 </r>
       <r>   -5.6802    1.0000 </r>
       <r>   -5.6694    1.0000 </r>
       <r>   -1.0128    1.0000 </r>
       <r>   -0.9726    1.0000 </r>
       <r>    1.5926    1.0000 </r>
       <r>    1.6016    1.0000 </r>
       <r>    2.6913    1.0000 </r>
       <r>    2.7213    1.0000 </r>
       <r>    7.4891    0.0000 </r>
       <r>    7.5064    0.0000 </r>
       <r>    8.4932    0.0000 </r>
      </set>
      <set comment="kpoint 29">
       <r>  -10.4675    1.0000 </r>
       <r>  -10.4165    1.0000 </r>
       <r>  -10.3596    1.0000 </r>
       <r>  -10.3494    1.0000 </r>
       <r>   -9.6908    1.0000 </r>
       <r>   -9.5887    1.0000 </r>
       <r>   -9.5154    1.0000 </r>
       <r>   -9.5096    1.0000 </r>
       <r>   -9.4948    1.0000 </r>
       <r>   -9.4796    1.0000 </r>
       <r>   -5.4789    1.0000 </r>
       <r>   -5.4721    1.0000 </r>
       <r>   -1.1416    1.0000 </r>
       <r>   -1.1046    1.0000 </r>
       <r>    1.6940    1.0000 </r>
       <r>    1.6966    1.0000 </r>
       <r>    2.0291    1.0000 </r>
       <r>    2.0602    1.0000 </r>
       <r>    7.2503    0.0000 </r>
       <r>    7.3788    0.0000 </r>
       <r>    7.5854    0.0000 </r>
      </set>
      <set comment="kpoint 30">
       <r>  -10.4738    1.0000 </r>
       <r>  -10.4103    1.0000 </r>
       <r>  -10.3595    1.0000 </r>
       <r>  -10.3454    1.0000 </r>
       <r>   -9.7064    1.0000 </r>
       <r>   -9.5683    1.0000 </r>
       <r>   -9.5291    1.0000 </r>
       <r>   -9.5140    1.0000 </r>
       <r>   -9.4887    1.0000 </r>
       <r>   -9.4816    1.0000 </r>
       <r>   -5.3884    1.0000 </r>
       <r>   -5.3810    1.0000 </r>
       <r>   -1.2167    1.0000 </r>
       <r>   -1.1620    1.0000 </r>
       <r>    1.2488    1.0000 </r>
       <r>    1.2528    1.0000 </r>
       <r>    2.1038    1.0000 </r>
       <r>    2.1337    1.0000 </r>
       <r>    7.6418    0.0000 </r>
       <r>    7.6498    0.0000 </r>
       <r>    9.0399    0.0000 </r>
      </set>
     </set>
    </set>
   </array>
  </eigenvalues>
  <separator name="orbital magnetization" >
   <v name="MAGDIPOLOUT">      0.00000000      0.00000000      0.00000000</v>
  </separator>
  <dos>
   <i name="efermi">      4.56475390 </i>
   <total>
    <array>
     <dimension dim="1">gridpoints</dimension>
     <dimension dim="2">spin</dimension>
     <field>energy</field>
     <field>total</field>
     <field>integrated</field>
     <set>
      <set comment="spin 1">
       <r>   -11.4791     0.0000     0.0000 </r>
       <r>   -11.4054     0.0000     0.0000 </r>
       <r>   -11.3316     0.0000     0.0000 </r>
       <r>   -11.2579     0.0000     0.0000 </r>
       <r>   -11.1842     0.0000     0.0000 </r>
       <r>   -11.1105     0.0000     0.0000 </r>
       <r>   -11.0367     0.0000     0.0000 </r>
       <r>   -10.9630     0.0000     0.0000 </r>
       <r>   -10.8893    -0.0000    -0.0000 </r>
       <r>   -10.8156    -0.0000    -0.0000 </r>
       <r>   -10.7418    -0.0000    -0.0000 </r>
       <r>   -10.6681    -0.0000    -0.0000 </r>
       <r>   -10.5944    -0.0055    -0.0004 </r>
       <r>   -10.5207    -0.3696    -0.0277 </r>
       <r>   -10.4470     7.0647     0.4932 </r>
       <r>   -10.3732    30.0547     2.7089 </r>
       <r>   -10.2995    18.3793     4.0639 </r>
       <r>   -10.2258    -0.8538     4.0010 </r>
       <r>   -10.1521    -0.0132     4.0000 </r>
       <r>   -10.0783    -0.0000     4.0000 </r>
       <r>   -10.0046    -0.0000     4.0000 </r>
       <r>    -9.9309    -0.0000     4.0000 </r>
       <r>    -9.8572    -0.0001     4.0000 </r>
       <r>    -9.7834    -0.0869     3.9936 </r>
       <r>    -9.7097     1.2055     4.0825 </r>
       <r>    -9.6360     9.7661     4.8025 </r>
       <r>    -9.5623    14.9539     5.9049 </r>
       <r>    -9.4885    40.8034     8.9131 </r>
       <r>    -9.4148    15.6388    10.0660 </r>
       <r>    -9.3411    -0.8915    10.0003 </r>
       <r>    -9.2674    -0.0043    10.0000 </r>
       <r>    -9.1937    -0.0000    10.0000 </r>
       <r>    -9.1199    -0.0000    10.0000 </r>
       <r>    -9.0462     0.0000    10.0000 </r>
       <r>    -8.9725     0.0000    10.0000 </r>
       <r>    -8.8988     0.0000    10.0000 </r>
       <r>    -8.8250     0.0000    10.0000 </r>
       <r>    -8.7513     0.0000    10.0000 </r>
       <r>    -8.6776     0.0000    10.0000 </r>
       <r>    -8.6039     0.0000    10.0000 </r>
       <r>    -8.5301     0.0000    10.0000 </r>
       <r>    -8.4564     0.0000    10.0000 </r>
       <r>    -8.3827     0.0000    10.0000 </r>
       <r>    -8.3090     0.0000    10.0000 </r>
       <r>    -8.2352     0.0000    10.0000 </r>
       <r>    -8.1615     0.0000    10.0000 </r>
       <r>    -8.0878     0.0000    10.0000 </r>
       <r>    -8.0141     0.0000    10.0000 </r>
       <r>    -7.9403     0.0000    10.0000 </r>
       <r>    -7.8666     0.0000    10.0000 </r>
       <r>    -7.7929    -0.0000    10.0000 </r>
       <r>    -7.7192    -0.0000    10.0000 </r>
       <r>    -7.6455    -0.0000    10.0000 </r>
       <r>    -7.5717    -0.0000    10.0000 </r>
       <r>    -7.4980    -0.0001    10.0000 </r>
       <r>    -7.4243    -0.0023     9.9998 </r>
       <r>    -7.3506     0.0672    10.0048 </r>
       <r>    -7.2768     0.0133    10.0058 </r>
       <r>    -7.2031     0.0049    10.0061 </r>
       <r>    -7.1294     0.6162    10.0516 </r>
       <r>    -7.0557     0.4822    10.0871 </r>
       <r>    -6.9819     0.0062    10.0876 </r>
       <r>    -6.9082    -0.0319    10.0852 </r>
       <r>    -6.8345     0.5816    10.1281 </r>
       <r>    -6.7608     0.4095    10.1583 </r>
       <r>    -6.6870     0.1171    10.1669 </r>
       <r>    -6.6133     2.0893    10.3209 </r>
       <r>    -6.5396     0.3359    10.3457 </r>
       <r>    -6.4659    -0.0255    10.3438 </r>
       <r>    -6.3921     0.0361    10.3465 </r>
       <r>    -6.3184     0.3808    10.3746 </r>
       <r>    -6.2447     1.1311    10.4580 </r>
       <r>    -6.1710     1.9840    10.6042 </r>
       <r>    -6.0973     0.7352    10.6584 </r>
       <r>    -6.0235     1.9639    10.8032 </r>
       <r>    -5.9498     0.5880    10.8466 </r>
       <r>    -5.8761     0.2501    10.8650 </r>
       <r>    -5.8024     2.6681    11.0617 </r>
       <r>    -5.7286     1.5136    11.1733 </r>
       <r>    -5.6549     3.3636    11.4213 </r>
       <r>    -5.5812     0.7019    11.4730 </r>
       <r>    -5.5075     1.8024    11.6059 </r>
       <r>    -5.4337     2.4618    11.7874 </r>
       <r>    -5.3600     2.2891    11.9561 </r>
       <r>    -5.2863     0.6320    12.0027 </r>
       <r>    -5.2126    -0.0371    12.0000 </r>
       <r>    -5.1388    -0.0001    12.0000 </r>
       <r>    -5.0651    -0.0000    12.0000 </r>
       <r>    -4.9914    -0.0000    12.0000 </r>
       <r>    -4.9177     0.0000    12.0000 </r>
       <r>    -4.8440     0.0000    12.0000 </r>
       <r>    -4.7702     0.0000    12.0000 </r>
       <r>    -4.6965     0.0000    12.0000 </r>
       <r>    -4.6228     0.0000    12.0000 </r>
       <r>    -4.5491     0.0000    12.0000 </r>
       <r>    -4.4753     0.0000    12.0000 </r>
       <r>    -4.4016     0.0000    12.0000 </r>
       <r>    -4.3279     0.0000    12.0000 </r>
       <r>    -4.2542     0.0000    12.0000 </r>
       <r>    -4.1804     0.0000    12.0000 </r>
       <r>    -4.1067     0.0000    12.0000 </r>
       <r>    -4.0330     0.0000    12.0000 </r>
       <r>    -3.9593     0.0000    12.0000 </r>
       <r>    -3.8855     0.0000    12.0000 </r>
       <r>    -3.8118     0.0000    12.0000 </r>
       <r>    -3.7381     0.0000    12.0000 </r>
       <r>    -3.6644     0.0000    12.0000 </r>
       <r>    -3.5906     0.0000    12.0000 </r>
       <r>    -3.5169     0.0000    12.0000 </r>
       <r>    -3.4432     0.0000    12.0000 </r>
       <r>    -3.3695     0.0000    12.0000 </r>
       <r>    -3.2958     0.0000    12.0000 </r>
       <r>    -3.2220     0.0000    12.0000 </r>
       <r>    -3.1483     0.0000    12.0000 </r>
       <r>    -3.0746     0.0000    12.0000 </r>
       <r>    -3.0009     0.0000    12.0000 </r>
       <r>    -2.9271     0.0000    12.0000 </r>
       <r>    -2.8534     0.0000    12.0000 </r>
       <r>    -2.7797     0.0000    12.0000 </r>
       <r>    -2.7060     0.0000    12.0000 </r>
       <r>    -2.6322     0.0000    12.0000 </r>
       <r>    -2.5585     0.0000    12.0000 </r>
       <r>    -2.4848     0.0000    12.0000 </r>
       <r>    -2.4111     0.0000    12.0000 </r>
       <r>    -2.3373     0.0000    12.0000 </r>
       <r>    -2.2636     0.0000    12.0000 </r>
       <r>    -2.1899     0.0000    12.0000 </r>
       <r>    -2.1162     0.0000    12.0000 </r>
       <r>    -2.0424     0.0000    12.0000 </r>
       <r>    -1.9687     0.0000    12.0000 </r>
       <r>    -1.8950     0.0000    12.0000 </r>
       <r>    -1.8213     0.0000    12.0000 </r>
       <r>    -1.7476    -0.0000    12.0000 </r>
       <r>    -1.6738    -0.0000    12.0000 </r>
       <r>    -1.6001    -0.0000    12.0000 </r>
       <r>    -1.5264    -0.0000    12.0000 </r>
       <r>    -1.4527    -0.0006    12.0000 </r>
       <r>    -1.3789    -0.0226    11.9983 </r>
       <r>    -1.3052     0.5923    12.0420 </r>
       <r>    -1.2315     0.5483    12.0824 </r>
       <r>    -1.1578     3.8719    12.3678 </r>
       <r>    -1.0840     4.1129    12.6711 </r>
       <r>    -1.0103     1.6567    12.7932 </r>
       <r>    -0.9366     2.6597    12.9893 </r>
       <r>    -0.8629     0.2534    13.0080 </r>
       <r>    -0.7891     0.6323    13.0546 </r>
       <r>    -0.7154     0.8293    13.1157 </r>
       <r>    -0.6417     2.1006    13.2706 </r>
       <r>    -0.5680     1.0121    13.3452 </r>
       <r>    -0.4943    -0.0550    13.3411 </r>
       <r>    -0.4205    -0.0012    13.3411 </r>
       <r>    -0.3468    -0.0576    13.3368 </r>
       <r>    -0.2731     1.2249    13.4271 </r>
       <r>    -0.1994     0.7600    13.4831 </r>
       <r>    -0.1256     1.5945    13.6007 </r>
       <r>    -0.0519     0.2937    13.6223 </r>
       <r>     0.0218    -0.0184    13.6210 </r>
       <r>     0.0955    -0.0000    13.6210 </r>
       <r>     0.1693    -0.0007    13.6209 </r>
       <r>     0.2430    -0.0365    13.6182 </r>
       <r>     0.3167     0.8707    13.6824 </r>
       <r>     0.3904     0.2903    13.7038 </r>
       <r>     0.4642    -0.0164    13.7026 </r>
       <r>     0.5379    -0.0000    13.7026 </r>
       <r>     0.6116    -0.0007    13.7026 </r>
       <r>     0.6853    -0.0658    13.6977 </r>
       <r>     0.7591     1.3251    13.7954 </r>
       <r>     0.8328     0.6772    13.8453 </r>
       <r>     0.9065    -0.0375    13.8426 </r>
       <r>     0.9802    -0.0001    13.8426 </r>
       <r>     1.0539    -0.0001    13.8426 </r>
       <r>     1.1277    -0.0281    13.8405 </r>
       <r>     1.2014     0.4231    13.8717 </r>
       <r>     1.2751     2.1436    14.0297 </r>
       <r>     1.3488     2.3175    14.2006 </r>
       <r>     1.4226     0.8898    14.2662 </r>
       <r>     1.4963    -0.0810    14.2602 </r>
       <r>     1.5700     0.4257    14.2916 </r>
       <r>     1.6437     3.9062    14.5796 </r>
       <r>     1.7175     2.0642    14.7317 </r>
       <r>     1.7912     0.2973    14.7536 </r>
       <r>     1.8649    -0.0198    14.7522 </r>
       <r>     1.9386    -0.0158    14.7510 </r>
       <r>     2.0124     0.1461    14.7618 </r>
       <r>     2.0861     3.0368    14.9857 </r>
       <r>     2.1598     4.1721    15.2933 </r>
       <r>     2.2335     1.1461    15.3778 </r>
       <r>     2.3073     2.8386    15.5870 </r>
       <r>     2.3810     1.5840    15.7038 </r>
       <r>     2.4547     1.5248    15.8162 </r>
       <r>     2.5284     0.0393    15.8191 </r>
       <r>     2.6021     1.9925    15.9660 </r>
       <r>     2.6759     2.8238    16.1742 </r>
       <r>     2.7496     4.5829    16.5121 </r>
       <r>     2.8233     0.6120    16.5572 </r>
       <r>     2.8970     0.3683    16.5843 </r>
       <r>     2.9708    -0.0219    16.5827 </r>
       <r>     3.0445    -0.0467    16.5793 </r>
       <r>     3.1182     2.7304    16.7806 </r>
       <r>     3.1919     3.8419    17.0638 </r>
       <r>     3.2657     2.1304    17.2209 </r>
       <r>     3.3394     0.9245    17.2890 </r>
       <r>     3.4131     2.3194    17.4600 </r>
       <r>     3.4868     0.1390    17.4703 </r>
       <r>     3.5606    -0.0457    17.4669 </r>
       <r>     3.6343     0.5416    17.5068 </r>
       <r>     3.7080     2.7029    17.7061 </r>
       <r>     3.7817     0.4411    17.7386 </r>
       <r>     3.8554     0.1264    17.7479 </r>
       <r>     3.9292     0.9094    17.8150 </r>
       <r>     4.0029     0.0529    17.8189 </r>
       <r>     4.0766     0.1329    17.8287 </r>
       <r>     4.1503     1.2275    17.9192 </r>
       <r>     4.2241     0.3093    17.9420 </r>
       <r>     4.2978     0.1412    17.9524 </r>
       <r>     4.3715     0.5711    17.9945 </r>
       <r>     4.4452    -0.0034    17.9942 </r>
       <r>     4.5190    -0.0033    17.9940 </r>
       <r>     4.5927     0.1447    18.0047 </r>
       <r>     4.6664     0.0169    18.0059 </r>
       <r>     4.7401    -0.0011    18.0058 </r>
       <r>     4.8139    -0.0000    18.0058 </r>
       <r>     4.8876    -0.0000    18.0058 </r>
       <r>     4.9613    -0.0000    18.0058 </r>
       <r>     5.0350    -0.0000    18.0058 </r>
       <r>     5.1088    -0.0000    18.0058 </r>
       <r>     5.1825    -0.0000    18.0058 </r>
       <r>     5.2562    -0.0000    18.0058 </r>
       <r>     5.3299    -0.0073    18.0053 </r>
       <r>     5.4036     0.1249    18.0145 </r>
       <r>     5.4774     0.5344    18.0539 </r>
       <r>     5.5511    -0.0586    18.0496 </r>
       <r>     5.6248     0.7718    18.1065 </r>
       <r>     5.6985     0.5639    18.1480 </r>
       <r>     5.7723    -0.0308    18.1458 </r>
       <r>     5.8460    -0.0001    18.1458 </r>
       <r>     5.9197    -0.0002    18.1458 </r>
       <r>     5.9934    -0.0160    18.1446 </r>
       <r>     6.0672     0.3397    18.1696 </r>
       <r>     6.1409     0.1600    18.1814 </r>
       <r>     6.2146    -0.0180    18.1801 </r>
       <r>     6.2883     0.1415    18.1905 </r>
       <r>     6.3621     0.7989    18.2494 </r>
       <r>     6.4358     0.9462    18.3192 </r>
       <r>     6.5095     2.0502    18.4703 </r>
       <r>     6.5832     4.0936    18.7721 </r>
       <r>     6.6570     2.4578    18.9533 </r>
       <r>     6.7307     1.9630    19.0980 </r>
       <r>     6.8044     1.3683    19.1989 </r>
       <r>     6.8781     0.1940    19.2132 </r>
       <r>     6.9518     0.3070    19.2358 </r>
       <r>     7.0256     1.0110    19.3104 </r>
       <r>     7.0993     0.1063    19.3182 </r>
       <r>     7.1730    -0.0020    19.3181 </r>
       <r>     7.2467     0.6434    19.3655 </r>
       <r>     7.3205     0.7506    19.4208 </r>
       <r>     7.3942     0.9344    19.4897 </r>
       <r>     7.4679     1.3547    19.5896 </r>
       <r>     7.5416     3.8314    19.8721 </r>
       <r>     7.6154     2.0495    20.0232 </r>
       <r>     7.6891     2.1749    20.1835 </r>
       <r>     7.7628     0.7483    20.2387 </r>
       <r>     7.8365     1.3522    20.3384 </r>
       <r>     7.9103     0.4186    20.3692 </r>
       <r>     7.9840    -0.0254    20.3674 </r>
       <r>     8.0577    -0.0001    20.3673 </r>
       <r>     8.1314    -0.0000    20.3673 </r>
       <r>     8.2052    -0.0000    20.3673 </r>
       <r>     8.2789    -0.0000    20.3673 </r>
       <r>     8.3526    -0.0017    20.3672 </r>
       <r>     8.4263    -0.0293    20.3651 </r>
       <r>     8.5000     1.1349    20.4487 </r>
       <r>     8.5738     1.5955    20.5664 </r>
       <r>     8.6475     0.9891    20.6393 </r>
       <r>     8.7212    -0.0344    20.6367 </r>
       <r>     8.7949     0.8232    20.6974 </r>
       <r>     8.8687     0.1590    20.7092 </r>
       <r>     8.9424    -0.0203    20.7077 </r>
       <r>     9.0161     0.1351    20.7176 </r>
       <r>     9.0898     1.7107    20.8437 </r>
       <r>     9.1636     0.7303    20.8976 </r>
       <r>     9.2373    -0.0502    20.8939 </r>
       <r>     9.3110     0.2936    20.9155 </r>
       <r>     9.3847     0.5118    20.9533 </r>
       <r>     9.4585     0.1693    20.9658 </r>
       <r>     9.5322    -0.0136    20.9647 </r>
       <r>     9.6059     0.0562    20.9689 </r>
       <r>     9.6796     0.4303    21.0006 </r>
       <r>     9.7533    -0.0075    21.0001 </r>
       <r>     9.8271    -0.0008    21.0000 </r>
       <r>     9.9008    -0.0000    21.0000 </r>
       <r>     9.9745    -0.0000    21.0000 </r>
       <r>    10.0482     0.0000    21.0000 </r>
       <r>    10.1220     0.0000    21.0000 </r>
       <r>    10.1957     0.0000    21.0000 </r>
       <r>    10.2694     0.0000    21.0000 </r>
       <r>    10.3431     0.0000    21.0000 </r>
       <r>    10.4169     0.0000    21.0000 </r>
       <r>    10.4906     0.0000    21.0000 </r>
       <r>    10.5643     0.0000    21.0000 </r>
       <r>    10.6380     0.0000    21.0000 </r>
      </set>
      <set comment="spin 2">
       <r>   -11.4791     0.0000     0.0000 </r>
       <r>   -11.4054     0.0000     0.0000 </r>
       <r>   -11.3316     0.0000     0.0000 </r>
       <r>   -11.2579     0.0000     0.0000 </r>
       <r>   -11.1842     0.0000     0.0000 </r>
       <r>   -11.1105     0.0000     0.0000 </r>
       <r>   -11.0367     0.0000     0.0000 </r>
       <r>   -10.9630     0.0000     0.0000 </r>
       <r>   -10.8893     0.0000     0.0000 </r>
       <r>   -10.8156     0.0000     0.0000 </r>
       <r>   -10.7418     0.0000     0.0000 </r>
       <r>   -10.6681     0.0000     0.0000 </r>
       <r>   -10.5944     0.0000     0.0000 </r>
       <r>   -10.5207     0.0000     0.0000 </r>
       <r>   -10.4470     0.0000     0.0000 </r>
       <r>   -10.3732     0.0000     0.0000 </r>
       <r>   -10.2995     0.0000     0.0000 </r>
       <r>   -10.2258     0.0000     0.0000 </r>
       <r>   -10.1521     0.0000     0.0000 </r>
       <r>   -10.0783     0.0000     0.0000 </r>
       <r>   -10.0046     0.0000     0.0000 </r>
       <r>    -9.9309     0.0000     0.0000 </r>
       <r>    -9.8572     0.0000     0.0000 </r>
       <r>    -9.7834     0.0000     0.0000 </r>
       <r>    -9.7097     0.0000     0.0000 </r>
       <r>    -9.6360     0.0000     0.0000 </r>
       <r>    -9.5623     0.0000     0.0000 </r>
       <r>    -9.4885     0.0000     0.0000 </r>
       <r>    -9.4148     0.0000     0.0000 </r>
       <r>    -9.3411     0.0000     0.0000 </r>
       <r>    -9.2674     0.0000     0.0000 </r>
       <r>    -9.1937     0.0000     0.0000 </r>
       <r>    -9.1199     0.0000     0.0000 </r>
       <r>    -9.0462     0.0000     0.0000 </r>
       <r>    -8.9725     0.0000     0.0000 </r>
       <r>    -8.8988     0.0000     0.0000 </r>
       <r>    -8.8250     0.0000     0.0000 </r>
       <r>    -8.7513     0.0000     0.0000 </r>
       <r>    -8.6776     0.0000     0.0000 </r>
       <r>    -8.6039     0.0000     0.0000 </r>
       <r>    -8.5301     0.0000     0.0000 </r>
       <r>    -8.4564     0.0000     0.0000 </r>
       <r>    -8.3827     0.0000     0.0000 </r>
       <r>    -8.3090     0.0000     0.0000 </r>
       <r>    -8.2352     0.0000     0.0000 </r>
       <r>    -8.1615     0.0000     0.0000 </r>
       <r>    -8.0878     0.0000     0.0000 </r>
       <r>    -8.0141     0.0000     0.0000 </r>
       <r>    -7.9403     0.0000     0.0000 </r>
       <r>    -7.8666     0.0000     0.0000 </r>
       <r>    -7.7929     0.0000     0.0000 </r>
       <r>    -7.7192     0.0000     0.0000 </r>
       <r>    -7.6455     0.0000     0.0000 </r>
       <r>    -7.5717     0.0000     0.0000 </r>
       <r>    -7.4980     0.0000     0.0000 </r>
       <r>    -7.4243     0.0000     0.0000 </r>
       <r>    -7.3506     0.0000     0.0000 </r>
       <r>    -7.2768     0.0000     0.0000 </r>
       <r>    -7.2031     0.0000     0.0000 </r>
       <r>    -7.1294     0.0000     0.0000 </r>
       <r>    -7.0557     0.0000     0.0000 </r>
       <r>    -6.9819     0.0000     0.0000 </r>
       <r>    -6.9082     0.0000     0.0000 </r>
       <r>    -6.8345     0.0000     0.0000 </r>
       <r>    -6.7608     0.0000     0.0000 </r>
       <r>    -6.6870     0.0000     0.0000 </r>
       <r>    -6.6133     0.0000     0.0000 </r>
       <r>    -6.5396     0.0000     0.0000 </r>
       <r>    -6.4659     0.0000     0.0000 </r>
       <r>    -6.3921     0.0000     0.0000 </r>
       <r>    -6.3184     0.0000     0.0000 </r>
       <r>    -6.2447     0.0000     0.0000 </r>
       <r>    -6.1710     0.0000     0.0000 </r>
       <r>    -6.0973     0.0000     0.0000 </r>
       <r>    -6.0235     0.0000     0.0000 </r>
       <r>    -5.9498     0.0000     0.0000 </r>
       <r>    -5.8761     0.0000     0.0000 </r>
       <r>    -5.8024     0.0000     0.0000 </r>
       <r>    -5.7286     0.0000     0.0000 </r>
       <r>    -5.6549     0.0000     0.0000 </r>
       <r>    -5.5812     0.0000     0.0000 </r>
       <r>    -5.5075     0.0000     0.0000 </r>
       <r>    -5.4337     0.0000     0.0000 </r>
       <r>    -5.3600     0.0000     0.0000 </r>
       <r>    -5.2863     0.0000     0.0000 </r>
       <r>    -5.2126     0.0000     0.0000 </r>
       <r>    -5.1388     0.0000     0.0000 </r>
       <r>    -5.0651     0.0000     0.0000 </r>
       <r>    -4.9914     0.0000     0.0000 </r>
       <r>    -4.9177     0.0000     0.0000 </r>
       <r>    -4.8440     0.0000     0.0000 </r>
       <r>    -4.7702     0.0000     0.0000 </r>
       <r>    -4.6965     0.0000     0.0000 </r>
       <r>    -4.6228     0.0000     0.0000 </r>
       <r>    -4.5491     0.0000     0.0000 </r>
       <r>    -4.4753     0.0000     0.0000 </r>
       <r>    -4.4016     0.0000     0.0000 </r>
       <r>    -4.3279     0.0000     0.0000 </r>
       <r>    -4.2542     0.0000     0.0000 </r>
       <r>    -4.1804     0.0000     0.0000 </r>
       <r>    -4.1067     0.0000     0.0000 </r>
       <r>    -4.0330     0.0000     0.0000 </r>
       <r>    -3.9593     0.0000     0.0000 </r>
       <r>    -3.8855     0.0000     0.0000 </r>
       <r>    -3.8118     0.0000     0.0000 </r>
       <r>    -3.7381     0.0000     0.0000 </r>
       <r>    -3.6644     0.0000     0.0000 </r>
       <r>    -3.5906     0.0000     0.0000 </r>
       <r>    -3.5169     0.0000     0.0000 </r>
       <r>    -3.4432     0.0000     0.0000 </r>
       <r>    -3.3695     0.0000     0.0000 </r>
       <r>    -3.2958     0.0000     0.0000 </r>
       <r>    -3.2220     0.0000     0.0000 </r>
       <r>    -3.1483     0.0000     0.0000 </r>
       <r>    -3.0746     0.0000     0.0000 </r>
       <r>    -3.0009     0.0000     0.0000 </r>
       <r>    -2.9271     0.0000     0.0000 </r>
       <r>    -2.8534     0.0000     0.0000 </r>
       <r>    -2.7797     0.0000     0.0000 </r>
       <r>    -2.7060     0.0000     0.0000 </r>
       <r>    -2.6322     0.0000     0.0000 </r>
       <r>    -2.5585     0.0000     0.0000 </r>
       <r>    -2.4848     0.0000     0.0000 </r>
       <r>    -2.4111     0.0000     0.0000 </r>
       <r>    -2.3373     0.0000     0.0000 </r>
       <r>    -2.2636     0.0000     0.0000 </r>
       <r>    -2.1899     0.0000     0.0000 </r>
       <r>    -2.1162     0.0000     0.0000 </r>
       <r>    -2.0424     0.0000     0.0000 </r>
       <r>    -1.9687     0.0000     0.0000 </r>
       <r>    -1.8950     0.0000     0.0000 </r>
       <r>    -1.8213     0.0000     0.0000 </r>
       <r>    -1.7476     0.0000     0.0000 </r>
       <r>    -1.6738     0.0000     0.0000 </r>
       <r>    -1.6001     0.0000     0.0000 </r>
       <r>    -1.5264     0.0000     0.0000 </r>
       <r>    -1.4527     0.0000     0.0000 </r>
       <r>    -1.3789     0.0000     0.0000 </r>
       <r>    -1.3052     0.0000     0.0000 </r>
       <r>    -1.2315     0.0000     0.0000 </r>
       <r>    -1.1578     0.0000     0.0000 </r>
       <r>    -1.0840     0.0000     0.0000 </r>
       <r>    -1.0103     0.0000     0.0000 </r>
       <r>    -0.9366     0.0000     0.0000 </r>
       <r>    -0.8629     0.0000     0.0000 </r>
       <r>    -0.7891     0.0000     0.0000 </r>
       <r>    -0.7154     0.0000     0.0000 </r>
       <r>    -0.6417     0.0000     0.0000 </r>
       <r>    -0.5680     0.0000     0.0000 </r>
       <r>    -0.4943     0.0000     0.0000 </r>
       <r>    -0.4205     0.0000     0.0000 </r>
       <r>    -0.3468     0.0000     0.0000 </r>
       <r>    -0.2731     0.0000     0.0000 </r>
       <r>    -0.1994     0.0000     0.0000 </r>
       <r>    -0.1256     0.0000     0.0000 </r>
       <r>    -0.0519     0.0000     0.0000 </r>
       <r>     0.0218     0.0000     0.0000 </r>
       <r>     0.0955     0.0000     0.0000 </r>
       <r>     0.1693     0.0000     0.0000 </r>
       <r>     0.2430     0.0000     0.0000 </r>
       <r>     0.3167     0.0000     0.0000 </r>
       <r>     0.3904     0.0000     0.0000 </r>
       <r>     0.4642     0.0000     0.0000 </r>
       <r>     0.5379     0.0000     0.0000 </r>
       <r>     0.6116     0.0000     0.0000 </r>
       <r>     0.6853     0.0000     0.0000 </r>
       <r>     0.7591     0.0000     0.0000 </r>
       <r>     0.8328     0.0000     0.0000 </r>
       <r>     0.9065     0.0000     0.0000 </r>
       <r>     0.9802     0.0000     0.0000 </r>
       <r>     1.0539     0.0000     0.0000 </r>
       <r>     1.1277     0.0000     0.0000 </r>
       <r>     1.2014     0.0000     0.0000 </r>
       <r>     1.2751     0.0000     0.0000 </r>
       <r>     1.3488     0.0000     0.0000 </r>
       <r>     1.4226     0.0000     0.0000 </r>
       <r>     1.4963     0.0000     0.0000 </r>
       <r>     1.5700     0.0000     0.0000 </r>
       <r>     1.6437     0.0000     0.0000 </r>
       <r>     1.7175     0.0000     0.0000 </r>
       <r>     1.7912     0.0000     0.0000 </r>
       <r>     1.8649     0.0000     0.0000 </r>
       <r>     1.9386     0.0000     0.0000 </r>
       <r>     2.0124     0.0000     0.0000 </r>
       <r>     2.0861     0.0000     0.0000 </r>
       <r>     2.1598     0.0000     0.0000 </r>
       <r>     2.2335     0.0000     0.0000 </r>
       <r>     2.3073     0.0000     0.0000 </r>
       <r>     2.3810     0.0000     0.0000 </r>
       <r>     2.4547     0.0000     0.0000 </r>
       <r>     2.5284     0.0000     0.0000 </r>
       <r>     2.6021     0.0000     0.0000 </r>
       <r>     2.6759     0.0000     0.0000 </r>
       <r>     2.7496     0.0000     0.0000 </r>
       <r>     2.8233     0.0000     0.0000 </r>
       <r>     2.8970     0.0000     0.0000 </r>
       <r>     2.9708     0.0000     0.0000 </r>
       <r>     3.0445     0.0000     0.0000 </r>
       <r>     3.1182     0.0000     0.0000 </r>
       <r>     3.1919     0.0000     0.0000 </r>
       <r>     3.2657     0.0000     0.0000 </r>
       <r>     3.3394     0.0000     0.0000 </r>
       <r>     3.4131     0.0000     0.0000 </r>
       <r>     3.4868     0.0000     0.0000 </r>
       <r>     3.5606     0.0000     0.0000 </r>
       <r>     3.6343     0.0000     0.0000 </r>
       <r>     3.7080     0.0000     0.0000 </r>
       <r>     3.7817     0.0000     0.0000 </r>
       <r>     3.8554     0.0000     0.0000 </r>
       <r>     3.9292     0.0000     0.0000 </r>
       <r>     4.0029     0.0000     0.0000 </r>
       <r>     4.0766     0.0000     0.0000 </r>
       <r>     4.1503     0.0000     0.0000 </r>
       <r>     4.2241     0.0000     0.0000 </r>
       <r>     4.2978     0.0000     0.0000 </r>
       <r>     4.3715     0.0000     0.0000 </r>
       <r>     4.4452     0.0000     0.0000 </r>
       <r>     4.5190     0.0000     0.0000 </r>
       <r>     4.5927     0.0000     0.0000 </r>
       <r>     4.6664     0.0000     0.0000 </r>
       <r>     4.7401     0.0000     0.0000 </r>
       <r>     4.8139     0.0000     0.0000 </r>
       <r>     4.8876     0.0000     0.0000 </r>
       <r>     4.9613     0.0000     0.0000 </r>
       <r>     5.0350     0.0000     0.0000 </r>
       <r>     5.1088     0.0000     0.0000 </r>
       <r>     5.1825     0.0000     0.0000 </r>
       <r>     5.2562     0.0000     0.0000 </r>
       <r>     5.3299     0.0000     0.0000 </r>
       <r>     5.4036     0.0000     0.0000 </r>
       <r>     5.4774     0.0000     0.0000 </r>
       <r>     5.5511     0.0000     0.0000 </r>
       <r>     5.6248     0.0000     0.0000 </r>
       <r>     5.6985     0.0000     0.0000 </r>
       <r>     5.7723     0.0000     0.0000 </r>
       <r>     5.8460     0.0000     0.0000 </r>
       <r>     5.9197     0.0000     0.0000 </r>
       <r>     5.9934     0.0000     0.0000 </r>
       <r>     6.0672     0.0000     0.0000 </r>
       <r>     6.1409     0.0000     0.0000 </r>
       <r>     6.2146     0.0000     0.0000 </r>
       <r>     6.2883     0.0000     0.0000 </r>
       <r>     6.3621     0.0000     0.0000 </r>
       <r>     6.4358     0.0000     0.0000 </r>
       <r>     6.5095     0.0000     0.0000 </r>
       <r>     6.5832     0.0000     0.0000 </r>
       <r>     6.6570     0.0000     0.0000 </r>
       <r>     6.7307     0.0000     0.0000 </r>
       <r>     6.8044     0.0000     0.0000 </r>
       <r>     6.8781     0.0000     0.0000 </r>
       <r>     6.9518     0.0000     0.0000 </r>
       <r>     7.0256     0.0000     0.0000 </r>
       <r>     7.0993     0.0000     0.0000 </r>
       <r>     7.1730     0.0000     0.0000 </r>
[...]
       </set>
       <set comment="band 21">
        <r>  0.0081  0.0010 -0.0032 -0.0071  0.0029  0.0019 -0.0000  0.0000  0.0002 </r>
        <r> -0.0143 -0.0008 -0.0049  0.0116  0.0039 -0.0007 -0.0001 -0.0000 -0.0001 </r>
       </set>
      </set>
      <set comment="kpoint 27">
       <set comment="band 1">
        <r>  0.0000  0.0000  0.0002  0.0001  0.1251  0.0654 -0.0482 -0.0051  0.0693 </r>
        <r>  0.0059 -0.0000  0.0002  0.0000 -0.0000 -0.0000 -0.0000  0.0000 -0.0000 </r>
       </set>
       <set comment="band 2">
        <r> -0.0000  0.0001 -0.0001 -0.0000 -0.1737 -0.0403 -0.0583  0.2058 -0.1174 </r>
        <r> -0.0017  0.0001 -0.0004  0.0000 -0.0000  0.0001 -0.0000 -0.0000 -0.0000 </r>
       </set>
       <set comment="band 3">
        <r>  0.0000 -0.0000  0.0000  0.0000  0.1159  0.1442 -0.1025 -0.0068  0.1067 </r>
        <r> -0.0000  0.0008  0.0002  0.0002 -0.0000 -0.0000  0.0000  0.0001  0.0000 </r>
       </set>
       <set comment="band 4">
        <r> -0.0000 -0.0000 -0.0000 -0.0000 -0.0813 -0.1653  0.2398 -0.1999 -0.0586 </r>
        <r> -0.0002  0.0000 -0.0002 -0.0006 -0.0000 -0.0002  0.0000 -0.0001 -0.0000 </r>
       </set>
       <set comment="band 5">
        <r> -0.0002 -0.0001 -0.0001 -0.0002  0.0766 -0.0848 -0.0288 -0.0794 -0.0372 </r>
        <r> -0.0088 -0.0001  0.0005  0.0000  0.0000 -0.0000  0.0000 -0.0000  0.0000 </r>
       </set>
       <set comment="band 6">
        <r>  0.0001  0.0000 -0.0000  0.0001 -0.0364 -0.0043 -0.1434  0.0842  0.0580 </r>
        <r>  0.0029 -0.0002 -0.0004  0.0000  0.0000  0.0001  0.0000 -0.0000 -0.0000 </r>
       </set>
       <set comment="band 7">
        <r>  0.0000 -0.0000 -0.0000 -0.0000 -0.1143  0.0659 -0.0542 -0.1104  0.0845 </r>
        <r>  0.0001 -0.0009 -0.0001  0.0009 -0.0000  0.0001 -0.0001 -0.0002  0.0000 </r>
       </set>
       <set comment="band 8">
        <r> -0.0000  0.0000 -0.0000 -0.0000 -0.0127 -0.0710  0.1146  0.1169 -0.1742 </r>
        <r> -0.0001  0.0001  0.0005 -0.0004  0.0000  0.0000 -0.0000 -0.0000 -0.0000 </r>
       </set>
       <set comment="band 9">
        <r> -0.0000  0.0000  0.0000 -0.0000  0.1141  0.0268 -0.1075  0.0335  0.2349 </r>
        <r> -0.0001  0.0002 -0.0000 -0.0001  0.0000 -0.0000  0.0000  0.0002 -0.0000 </r>
       </set>
       <set comment="band 10">
        <r>  0.0000 -0.0000 -0.0000  0.0000 -0.0132  0.0653  0.1888 -0.0371 -0.1658 </r>
        <r> -0.0000 -0.0001 -0.0002  0.0001  0.0000  0.0000  0.0000  0.0000  0.0000 </r>
       </set>
       <set comment="band 11">
        <r>  0.0154  0.0016  0.0071  0.0037  0.0120  0.0079  0.0000  0.0031  0.0001 </r>
        <r>  0.1891  0.0001  0.0006  0.0001  0.0000  0.0000  0.0000  0.0000  0.0000 </r>
       </set>
       <set comment="band 12">
        <r> -0.0153 -0.0018 -0.0069 -0.0039 -0.0119 -0.0096 -0.0003 -0.0049 -0.0002 </r>
        <r> -0.1865 -0.0001 -0.0006 -0.0001 -0.0000 -0.0000 -0.0000 -0.0000 -0.0000 </r>
       </set>
       <set comment="band 13">
        <r>  0.1595  0.0023  0.0025  0.0077  0.0014  0.0002  0.0002  0.0003  0.0000 </r>
        <r>  0.0146  0.0147  0.0317  0.0202  0.0009  0.0005  0.0000  0.0002  0.0000 </r>
       </set>
       <set comment="band 14">
        <r> -0.1617 -0.0025 -0.0026 -0.0074 -0.0016 -0.0002 -0.0002 -0.0003 -0.0001 </r>
        <r> -0.0143 -0.0132 -0.0319 -0.0198 -0.0009 -0.0005 -0.0000 -0.0002 -0.0000 </r>
       </set>
       <set comment="band 15">
        <r>  0.0110  0.0281  0.0100  0.0204  0.0006  0.0020  0.0013  0.0001  0.0011 </r>
        <r>  0.0031  0.0121  0.0190  0.0580  0.0002  0.0003  0.0001  0.0001  0.0002 </r>
       </set>
       <set comment="band 16">
        <r> -0.0115 -0.0178 -0.0140 -0.0211 -0.0005 -0.0024 -0.0010  0.0000 -0.0012 </r>
        <r> -0.0032 -0.0267 -0.0152 -0.0562 -0.0003 -0.0003 -0.0002 -0.0000 -0.0001 </r>
       </set>
       <set comment="band 17">
        <r> -0.0008 -0.0327 -0.0110 -0.0126 -0.0009 -0.0003 -0.0019 -0.0030 -0.0003 </r>
        <r> -0.0008 -0.0602 -0.0260 -0.0152 -0.0001 -0.0001 -0.0003 -0.0004 -0.0001 </r>
       </set>
       <set comment="band 18">
        <r>  0.0031  0.0217  0.0161  0.0140  0.0008  0.0003  0.0015  0.0033  0.0003 </r>
        <r>  0.0003  0.0762  0.0214  0.0115  0.0001  0.0002  0.0004  0.0002  0.0001 </r>
       </set>
       <set comment="band 19">
        <r> -0.0224  0.0000 -0.0065 -0.0012 -0.0024 -0.0012 -0.0010 -0.0001 -0.0003 </r>
        <r> -0.0040 -0.0014 -0.0128 -0.0112 -0.0024 -0.0001 -0.0008 -0.0000 -0.0000 </r>
       </set>
       <set comment="band 20">
        <r>  0.0249 -0.0000 -0.0005  0.0023  0.0010  0.0016  0.0001  0.0000  0.0010 </r>
        <r>  0.0029  0.0001  0.0114  0.0165  0.0011  0.0014 -0.0002  0.0001  0.0004 </r>
       </set>
       <set comment="band 21">
        <r>  0.0038  0.0032 -0.0029  0.0033  0.0008  0.0016  0.0007 -0.0000  0.0009 </r>
        <r> -0.0014  0.0020  0.0022  0.0030  0.0007  0.0012 -0.0000 -0.0000  0.0006 </r>
       </set>
      </set>
      <set comment="kpoint 28">
       <set comment="band 1">
        <r>  0.0000  0.0000  0.0001  0.0001  0.0589  0.0743 -0.0450  0.0123  0.0345 </r>
        <r>  0.0045  0.0000  0.0000  0.0001 -0.0000  0.0000 -0.0000 -0.0000 -0.0000 </r>
       </set>
       <set comment="band 2">
        <r> -0.0000  0.0000 -0.0001 -0.0000 -0.0739 -0.0663 -0.0184  0.1089 -0.0510 </r>
        <r> -0.0018 -0.0001 -0.0001 -0.0001  0.0000  0.0000 -0.0000 -0.0000 -0.0000 </r>
       </set>
       <set comment="band 3">
        <r>  0.0000 -0.0000  0.0000  0.0000  0.1252  0.0675 -0.0410 -0.0416  0.1131 </r>
        <r>  0.0001  0.0004  0.0002  0.0001 -0.0000 -0.0000  0.0000  0.0001  0.0000 </r>
       </set>
       <set comment="band 4">
        <r> -0.0000 -0.0000 -0.0000 -0.0000 -0.1197 -0.0747  0.1246 -0.0820 -0.0992 </r>
        <r> -0.0001 -0.0000 -0.0004 -0.0000 -0.0000 -0.0001 -0.0000 -0.0001 -0.0000 </r>
       </set>
       <set comment="band 5">
        <r> -0.0001 -0.0001 -0.0001 -0.0001  0.0466 -0.0665 -0.0161 -0.0585 -0.0151 </r>
        <r> -0.0065  0.0001  0.0002 -0.0002  0.0000 -0.0000  0.0000  0.0000  0.0000 </r>
       </set>
       <set comment="band 6">
        <r>  0.0001 -0.0000  0.0000  0.0001  0.0097  0.0529 -0.0956 -0.0209  0.0931 </r>
        <r>  0.0021  0.0001 -0.0000  0.0002 -0.0000  0.0000 -0.0000 -0.0000  0.0000 </r>
       </set>
       <set comment="band 7">
        <r>  0.0000  0.0000 -0.0000 -0.0000 -0.1181  0.0084 -0.0077  0.0230 -0.0379 </r>
        <r>  0.0002 -0.0007 -0.0002  0.0003  0.0000  0.0001 -0.0000 -0.0001 -0.0000 </r>
       </set>
       <set comment="band 8">
        <r> -0.0000  0.0000 -0.0000 -0.0000 -0.0068 -0.0440  0.0141  0.1163 -0.1183 </r>
        <r>  0.0001  0.0000  0.0003 -0.0003  0.0000  0.0000  0.0000 -0.0000 -0.0000 </r>
       </set>
       <set comment="band 9">
        <r>  0.0000 -0.0000  0.0000  0.0000  0.1031  0.0719 -0.0241 -0.0384  0.1833 </r>
        <r>  0.0000  0.0000 -0.0000 -0.0000  0.0000  0.0001  0.0000  0.0001  0.0000 </r>
       </set>
       <set comment="band 10">
        <r> -0.0000 -0.0000 -0.0000 -0.0000 -0.0249 -0.0223  0.1092 -0.0178 -0.1024 </r>
        <r> -0.0000  0.0002 -0.0001 -0.0001 -0.0000 -0.0001  0.0000  0.0000  0.0000 </r>
       </set>
       <set comment="band 11">
        <r>  0.0102  0.0010  0.0025  0.0046  0.0055  0.0077 -0.0001  0.0020  0.0001 </r>
        <r>  0.1247  0.0001  0.0001  0.0004  0.0000  0.0000  0.0000  0.0000  0.0000 </r>
       </set>
       <set comment="band 12">
        <r> -0.0101 -0.0011 -0.0025 -0.0047 -0.0055 -0.0089 -0.0001 -0.0031 -0.0001 </r>
        <r> -0.1230 -0.0001 -0.0001 -0.0004 -0.0000 -0.0000 -0.0000 -0.0000 -0.0000 </r>
       </set>
       <set comment="band 13">
        <r>  0.0929  0.0014  0.0042  0.0018  0.0001  0.0009  0.0000  0.0001  0.0001 </r>
        <r>  0.0085  0.0089  0.0115  0.0186  0.0003  0.0005  0.0000  0.0001  0.0000 </r>
       </set>
       <set comment="band 14">
        <r> -0.0940 -0.0018 -0.0043 -0.0013 -0.0001 -0.0009 -0.0001 -0.0002 -0.0001 </r>
        <r> -0.0083 -0.0074 -0.0114 -0.0190 -0.0003 -0.0006 -0.0000 -0.0001 -0.0000 </r>
       </set>
       <set comment="band 15">
        <r>  0.0236  0.0477  0.0360  0.0320  0.0038  0.0018  0.0039  0.0001  0.0012 </r>
        <r>  0.0067  0.0341  0.1040  0.0512  0.0006  0.0006  0.0005  0.0001  0.0002 </r>
       </set>
       <set comment="band 16">
        <r> -0.0244 -0.0408 -0.0391 -0.0326 -0.0040 -0.0018 -0.0038  0.0000 -0.0012 </r>
        <r> -0.0067 -0.0439 -0.1017 -0.0484 -0.0006 -0.0006 -0.0005 -0.0001 -0.0002 </r>
       </set>
       <set comment="band 17">
        <r> -0.0003 -0.0285 -0.0094 -0.0126 -0.0002 -0.0008 -0.0009 -0.0029 -0.0012 </r>
        <r> -0.0004 -0.0562 -0.0145 -0.0244 -0.0001 -0.0000 -0.0002 -0.0003 -0.0002 </r>
       </set>
       <set comment="band 18">
        <r>  0.0015  0.0217  0.0132  0.0138  0.0003  0.0007  0.0007  0.0030  0.0011 </r>
        <r>  0.0001  0.0663  0.0113  0.0208  0.0001  0.0001  0.0002  0.0002  0.0002 </r>
       </set>
       <set comment="band 19">
        <r> -0.1353 -0.0006 -0.0291 -0.0337 -0.0056 -0.0056 -0.0005 -0.0005 -0.0055 </r>
        <r> -0.0447 -0.0030 -0.0629 -0.0758 -0.0057 -0.0070 -0.0008 -0.0004 -0.0026 </r>
       </set>
       <set comment="band 20">
        <r>  0.1372  0.0010  0.0315  0.0323  0.0047  0.0055  0.0002  0.0002  0.0064 </r>
        <r>  0.0461  0.0020  0.0593  0.0798  0.0055  0.0077  0.0006  0.0004  0.0026 </r>
       </set>
       <set comment="band 21">
        <r>  0.0108  0.0129  0.0466  0.0654  0.0118  0.0195  0.0087  0.0004  0.0015 </r>
        <r>  0.0180  0.0761  0.0148  0.0031  0.0094  0.0052  0.0126  0.0003  0.0086 </r>
       </set>
      </set>
      <set comment="kpoint 29">
       <set comment="band 1">
        <r> -0.0000 -0.0000  0.0001  0.0000  0.0565  0.0063 -0.0083 -0.0118  0.0290 </r>
        <r>  0.0016 -0.0000  0.0001 -0.0000 -0.0000 -0.0000 -0.0000 -0.0000 -0.0000 </r>
       </set>
       <set comment="band 2">
        <r>  0.0000  0.0000 -0.0000  0.0000 -0.0815 -0.0011 -0.0173  0.0656 -0.0516 </r>
        <r> -0.0004 -0.0001 -0.0003  0.0002 -0.0000  0.0000  0.0000 -0.0000 -0.0000 </r>
       </set>
       <set comment="band 3">
        <r>  0.0000  0.0000  0.0000  0.0000  0.0308  0.0952 -0.1124  0.0712  0.0281 </r>
        <r> -0.0000  0.0006  0.0001 -0.0001 -0.0000  0.0000 -0.0000  0.0001  0.0000 </r>
       </set>
       <set comment="band 4">
        <r>  0.0000 -0.0000 -0.0000  0.0000 -0.0101 -0.0979  0.1481 -0.1280 -0.0038 </r>
        <r> -0.0000  0.0001  0.0000 -0.0005  0.0000 -0.0001  0.0000 -0.0000 -0.0000 </r>
       </set>
       <set comment="band 5">
        <r> -0.0000 -0.0000 -0.0000 -0.0001  0.0293 -0.0208 -0.0129 -0.0220 -0.0157 </r>
        <r> -0.0024 -0.0002  0.0002  0.0002  0.0000  0.0000 -0.0000 -0.0000  0.0000 </r>
       </set>
       <set comment="band 6">
        <r>  0.0000  0.0000 -0.0000  0.0000 -0.0366 -0.0028 -0.0318  0.0366 -0.0029 </r>
        <r>  0.0007 -0.0003 -0.0003  0.0001 -0.0000  0.0001  0.0000 -0.0000 -0.0000 </r>
       </set>
       <set comment="band 7">
        <r>  0.0000  0.0000  0.0000 -0.0000 -0.0127 -0.0614 -0.0790  0.0142  0.0240 </r>
        <r>  0.0002 -0.0000  0.0001 -0.0001 -0.0000  0.0000 -0.0000 -0.0001  0.0000 </r>
       </set>
       <set comment="band 8">
        <r> -0.0000 -0.0000 -0.0000  0.0000  0.0002  0.0665  0.1348 -0.1438 -0.0243 </r>
        <r> -0.0003 -0.0001  0.0003  0.0001 -0.0000 -0.0001  0.0000 -0.0000  0.0000 </r>
       </set>
       <set comment="band 9">
        <r> -0.0000  0.0000  0.0000 -0.0000  0.0194 -0.0749 -0.0570  0.1153  0.0938 </r>
        <r> -0.0001  0.0001 -0.0002  0.0001  0.0000  0.0000  0.0000  0.0000 -0.0000 </r>
       </set>
       <set comment="band 10">
        <r>  0.0000  0.0000 -0.0000  0.0000  0.0046  0.0914  0.0358  0.0031 -0.0765 </r>
        <r>  0.0000 -0.0002 -0.0001  0.0002  0.0000  0.0001 -0.0000  0.0000 -0.0000 </r>
       </set>
       <set comment="band 11">
        <r>  0.0022  0.0001  0.0047  0.0009  0.0071  0.0016  0.0001  0.0003  0.0001 </r>
        <r>  0.0739  0.0000  0.0001 -0.0000  0.0000  0.0000  0.0000 -0.0000  0.0000 </r>
       </set>
       <set comment="band 12">
        <r> -0.0023 -0.0002 -0.0046 -0.0009 -0.0071 -0.0021 -0.0002 -0.0009 -0.0001 </r>
        <r> -0.0730 -0.0000 -0.0001 -0.0000 -0.0000 -0.0000 -0.0000 -0.0000  0.0000 </r>
       </set>
       <set comment="band 13">
        <r>  0.0878 -0.0000  0.0003  0.0013  0.0006  0.0001  0.0006  0.0000 -0.0000 </r>
        <r>  0.0041  0.0020  0.0241  0.0049  0.0007  0.0002 -0.0000  0.0000  0.0000 </r>
       </set>
       <set comment="band 14">
        <r> -0.0890  0.0000 -0.0004 -0.0010 -0.0007 -0.0001 -0.0006 -0.0000 -0.0000 </r>
        <r> -0.0041 -0.0012 -0.0243 -0.0046 -0.0007 -0.0002 -0.0000 -0.0000 -0.0000 </r>
       </set>
       <set comment="band 15">
        <r> -0.0009  0.0074 -0.0049 -0.0066  0.0000 -0.0004  0.0001  0.0001  0.0000 </r>
        <r> -0.0004 -0.0188  0.0006  0.0004 -0.0000  0.0000 -0.0001 -0.0000 -0.0000 </r>
       </set>
       <set comment="band 16">
        <r>  0.0014  0.0054  0.0012  0.0016  0.0001 -0.0001  0.0003  0.0002  0.0000 </r>
        <r>  0.0002 -0.0054  0.0019  0.0051  0.0000  0.0001  0.0000 -0.0000  0.0000 </r>
       </set>
       <set comment="band 17">
        <r> -0.0000 -0.0048  0.0031  0.0014 -0.0000  0.0000  0.0001  0.0002 -0.0000 </r>
        <r> -0.0001  0.0097  0.0011  0.0017  0.0000 -0.0000  0.0001 -0.0000  0.0000 </r>
       </set>
       <set comment="band 18">
        <r>  0.0008 -0.0085  0.0009  0.0036  0.0000  0.0002 -0.0004 -0.0003 -0.0000 </r>
        <r> -0.0000  0.0150 -0.0035 -0.0079  0.0000  0.0000  0.0000 -0.0001  0.0000 </r>
       </set>
       <set comment="band 19">
        <r>  0.0134  0.0038  0.1231  0.0174  0.0387  0.0042  0.0010  0.0000  0.0001 </r>
        <r>  0.0452  0.0568  0.0041  0.0077  0.0050  0.0000  0.0224  0.0000  0.0000 </r>
       </set>
       <set comment="band 20">
        <r> -0.0067 -0.0028 -0.0728 -0.0088 -0.0249 -0.0034  0.0012  0.0001 -0.0001 </r>
        <r> -0.0211 -0.0347  0.0046 -0.0081 -0.0045  0.0001 -0.0123  0.0000 -0.0000 </r>
       </set>
       <set comment="band 21">
        <r> -0.0665 -0.0053 -0.0019 -0.0020 -0.0003 -0.0001 -0.0100 -0.0003 -0.0003 </r>
        <r> -0.0039 -0.0002 -0.0406 -0.0243 -0.0102 -0.0002 -0.0005  0.0000 -0.0000 </r>
       </set>
      </set>
      <set comment="kpoint 30">
       <set comment="band 1">
        <r> -0.0000  0.0000  0.0000  0.0000  0.0000  0.0000 -0.0000  0.0000  0.0000 </r>
        <r>  0.0000  0.0000 -0.0000  0.0000  0.0000 -0.0000  0.0000 -0.0000  0.0000 </r>
       </set>
       <set comment="band 2">
        <r>  0.0000 -0.0000 -0.0000 -0.0000 -0.0000 -0.0000  0.0000  0.0000 -0.0000 </r>
        <r> -0.0000  0.0000  0.0000 -0.0000 -0.0000  0.0000 -0.0000  0.0000 -0.0000 </r>
       </set>
       <set comment="band 3">
        <r>  0.0000 -0.0000 -0.0000 -0.0000 -0.0001 -0.0001  0.0001 -0.0000 -0.0000 </r>
        <r>  0.0000 -0.0000 -0.0000 -0.0000  0.0000 -0.0000 -0.0000 -0.0000 -0.0000 </r>
       </set>
       <set comment="band 4">
        <r>  0.0000  0.0000  0.0000  0.0000  0.0001  0.0001 -0.0001  0.0000  0.0000 </r>
        <r> -0.0000  0.0000  0.0000  0.0000 -0.0000  0.0000  0.0000  0.0000  0.0000 </r>
       </set>
       <set comment="band 5">
        <r>  0.0000 -0.0000 -0.0000 -0.0000 -0.0000 -0.0000 -0.0000 -0.0000 -0.0000 </r>
        <r> -0.0000 -0.0000 -0.0000 -0.0000 -0.0000 -0.0000  0.0000 -0.0000 -0.0000 </r>
       </set>
       <set comment="band 6">
        <r>  0.0000 -0.0000  0.0000  0.0000  0.0000  0.0000  0.0000 -0.0000  0.0000 </r>
        <r>  0.0000 -0.0000  0.0000  0.0000 -0.0000 -0.0000 -0.0000  0.0000  0.0000 </r>
       </set>
       <set comment="band 7">
        <r>  0.0000  0.0000  0.0000  0.0000  0.0000  0.0000  0.0000  0.0000 -0.0000 </r>
        <r>  0.0000  0.0000 -0.0000  0.0000  0.0000  0.0000 -0.0000  0.0000  0.0000 </r>
       </set>
       <set comment="band 8">
        <r> -0.0000  0.0000  0.0000  0.0000  0.0000  0.0000 -0.0000  0.0000 -0.0000 </r>
        <r>  0.0000  0.0000  0.0000 -0.0000  0.0000  0.0000  0.0000  0.0000  0.0000 </r>
       </set>
       <set comment="band 9">
        <r>  0.0000 -0.0000  0.0000 -0.0000  0.0000 -0.0000  0.0001 -0.0000  0.0001 </r>
        <r> -0.0000 -0.0000  0.0000 -0.0000  0.0000  0.0000  0.0000 -0.0000 -0.0000 </r>
       </set>
       <set comment="band 10">
        <r> -0.0000  0.0000 -0.0000  0.0000 -0.0001 -0.0000 -0.0001 -0.0000 -0.0001 </r>
        <r>  0.0000  0.0000 -0.0000  0.0000 -0.0000 -0.0000 -0.0000 -0.0000  0.0000 </r>
       </set>
       <set comment="band 11">
        <r>  0.0000 -0.0000 -0.0000 -0.0000 -0.0000 -0.0000 -0.0000 -0.0000  0.0000 </r>
        <r> -0.0000 -0.0000  0.0000 -0.0000 -0.0000  0.0000 -0.0000  0.0000 -0.0000 </r>
       </set>
       <set comment="band 12">
        <r>  0.0000  0.0000  0.0000  0.0000  0.0000  0.0000  0.0000  0.0000  0.0000 </r>
        <r>  0.0000 -0.0000 -0.0000 -0.0000  0.0000  0.0000 -0.0000  0.0000  0.0000 </r>
       </set>
       <set comment="band 13">
        <r> -0.0000  0.0000 -0.0000  0.0000  0.0000 -0.0000 -0.0000 -0.0000 -0.0000 </r>
        <r>  0.0000  0.0000 -0.0000 -0.0000  0.0000  0.0000 -0.0000 -0.0000  0.0000 </r>
       </set>
       <set comment="band 14">
        <r>  0.0000  0.0000  0.0000 -0.0000 -0.0000  0.0000  0.0000 -0.0000  0.0000 </r>
        <r>  0.0000  0.0000 -0.0000 -0.0000  0.0000 -0.0000 -0.0000 -0.0000 -0.0000 </r>
       </set>
       <set comment="band 15">
        <r>  0.0000 -0.0000 -0.0000 -0.0000 -0.0000 -0.0000 -0.0000 -0.0000 -0.0000 </r>
        <r> -0.0000 -0.0000 -0.0000 -0.0000 -0.0000 -0.0000 -0.0000 -0.0000 -0.0000 </r>
       </set>
       <set comment="band 16">
        <r> -0.0000  0.0000  0.0000  0.0000  0.0000  0.0000  0.0000  0.0000  0.0000 </r>
        <r>  0.0000  0.0000  0.0000  0.0000 -0.0000  0.0000  0.0000 -0.0000  0.0000 </r>
       </set>
       <set comment="band 17">
        <r>  0.0000  0.0000  0.0000 -0.0000  0.0000 -0.0000  0.0000 -0.0000 -0.0000 </r>
        <r>  0.0000 -0.0000  0.0000 -0.0000  0.0000 -0.0000  0.0000 -0.0000 -0.0000 </r>
       </set>
       <set comment="band 18">
        <r>  0.0000  0.0000 -0.0000 -0.0000 -0.0000  0.0000 -0.0000  0.0000 -0.0000 </r>
        <r> -0.0000  0.0000  0.0000 -0.0000 -0.0000  0.0000 -0.0000  0.0000 -0.0000 </r>
       </set>
       <set comment="band 19">
        <r>  0.0536  0.0034  0.0366  0.0039  0.0108  0.0019  0.0059  0.0001  0.0007 </r>
        <r>  0.0165  0.0170  0.0309  0.0217  0.0079  0.0002  0.0065  0.0000  0.0000 </r>
       </set>
       <set comment="band 20">
        <r> -0.0536 -0.0034 -0.0367 -0.0039 -0.0097 -0.0016 -0.0052 -0.0001 -0.0007 </r>
        <r> -0.0166 -0.0171 -0.0309 -0.0216 -0.0079 -0.0002 -0.0066 -0.0000 -0.0000 </r>
       </set>
       <set comment="band 21">
        <r> -0.0055 -0.0001 -0.0066 -0.0019  0.0007  0.0021 -0.0001  0.0000 -0.0003 </r>
        <r> -0.0021  0.0131 -0.0068 -0.0043 -0.0000 -0.0011  0.0003  0.0001  0.0005 </r>
       </set>
      </set>
     </set>
    </set>
   </array>
  </projected>
 </calculation>
 <structure name="finalpos" >
  <crystal>
   <varray name="basis" >
    <v>       0.00000000       3.02920000       3.02920000 </v>
    <v>       3.02920000       0.00000000       3.02920000 </v>
    <v>       3.02920000       3.02920000       0.00000000 </v>
   </varray>
   <i name="volume">     55.59219731 </i>
   <varray name="rec_basis" >
    <v>      -0.16506008       0.16506008       0.16506008 </v>
    <v>       0.16506008      -0.16506008       0.16506008 </v>
    <v>       0.16506008       0.16506008      -0.16506008 </v>
   </varray>
  </crystal>
  <varray name="positions" >
   <v>       0.00000000       0.00000000       0.00000000 </v>
   <v>       0.75000000       0.75000000       0.75000000 </v>
  </varray>
 </structure>
</modeling>
