   2   2   1   0
  0.2779610E+02  0.4283936E-09  0.4283936E-09  0.4283936E-09  0.5000000E-15
  1.000000000000000E-004
  CAR 
 unknown system                          
     10.44063376    -11.34971695  301      4.16907030      1.00000000
    -11.350  0.0000E+00  0.0000E+00
    -11.277  0.0000E+00  0.0000E+00
    -11.204  0.0000E+00  0.0000E+00
    -11.132  0.0000E+00  0.0000E+00
    -11.059  0.0000E+00  0.0000E+00
    -10.987  0.0000E+00  0.0000E+00
    -10.914  0.0000E+00  0.0000E+00
    -10.841  0.0000E+00  0.0000E+00
    -10.769 -0.2137E-28 -0.1552E-29
    -10.696 -0.5143E-19 -0.3735E-20
    -10.623 -0.1775E-11 -0.1289E-12
    -10.551 -0.9127E-06 -0.6629E-07
    -10.478 -0.6422E-02 -0.4666E-03
    -10.405 -0.3717E+00 -0.2746E-01
    -10.333  0.6987E+01  0.4800E+00
    -10.260  0.2922E+02  0.2603E+01
    -10.188  0.2007E+02  0.4061E+01
    -10.115 -0.8128E+00  0.4002E+01
    -10.042 -0.2277E-01  0.4000E+01
     -9.970 -0.4289E-05  0.4000E+01
     -9.897 -0.1127E-10  0.4000E+01
     -9.824 -0.8692E-09  0.4000E+01
     -9.752 -0.5857E-04  0.4000E+01
     -9.679 -0.5372E-01  0.3996E+01
     -9.606  0.5155E+00  0.4034E+01
     -9.534  0.9005E+01  0.4688E+01
     -9.461  0.1287E+02  0.5623E+01
     -9.389  0.3462E+02  0.8137E+01
     -9.316  0.2679E+02  0.1008E+02
     -9.243 -0.1113E+01  0.1000E+02
     -9.171 -0.2813E-01  0.1000E+02
     -9.098 -0.4423E-05  0.1000E+02
     -9.025 -0.9064E-11  0.1000E+02
     -8.953  0.0000E+00  0.1000E+02
     -8.880  0.0000E+00  0.1000E+02
     -8.808  0.0000E+00  0.1000E+02
     -8.735  0.0000E+00  0.1000E+02
     -8.662  0.0000E+00  0.1000E+02
     -8.590  0.0000E+00  0.1000E+02
     -8.517  0.0000E+00  0.1000E+02
     -8.444  0.0000E+00  0.1000E+02
     -8.372  0.0000E+00  0.1000E+02
     -8.299  0.0000E+00  0.1000E+02
     -8.226  0.0000E+00  0.1000E+02
     -8.154  0.0000E+00  0.1000E+02
     -8.081  0.0000E+00  0.1000E+02
     -8.009  0.0000E+00  0.1000E+02
     -7.936  0.0000E+00  0.1000E+02
     -7.863  0.0000E+00  0.1000E+02
     -7.791  0.0000E+00  0.1000E+02
     -7.718 -0.5502E-29  0.1000E+02
     -7.645 -0.9204E-20  0.1000E+02
     -7.573 -0.2075E-12  0.1000E+02
     -7.500 -0.6355E-07  0.1000E+02
     -7.427 -0.2225E-03  0.1000E+02
     -7.355  0.2437E-03  0.1000E+02
     -7.282  0.7426E-01  0.1001E+02
     -7.210  0.6810E-03  0.1001E+02
     -7.137  0.7970E-01  0.1001E+02
     -7.064  0.6786E+00  0.1006E+02
     -6.992  0.3872E+00  0.1009E+02
     -6.919 -0.1751E-01  0.1009E+02
     -6.846 -0.1608E-01  0.1009E+02
     -6.774  0.8514E+00  0.1015E+02
     -6.701  0.9094E-01  0.1015E+02
     -6.628  0.7880E+00  0.1021E+02
     -6.556  0.1787E+01  0.1034E+02
     -6.483  0.3922E-01  0.1034E+02
     -6.411 -0.2189E-01  0.1034E+02
     -6.338  0.2554E+00  0.1036E+02
     -6.265  0.3056E+00  0.1038E+02
     -6.193  0.1876E+01  0.1052E+02
     -6.120  0.1839E+01  0.1065E+02
     -6.047  0.5960E+00  0.1070E+02
     -5.975  0.2053E+01  0.1085E+02
     -5.902 -0.6185E-01  0.1084E+02
     -5.829  0.1692E+01  0.1096E+02
     -5.757  0.2324E+01  0.1113E+02
     -5.684  0.2086E+01  0.1128E+02
     -5.612  0.2707E+01  0.1148E+02
     -5.539  0.6008E+00  0.1152E+02
     -5.466  0.3241E+01  0.1176E+02
     -5.394  0.1799E+01  0.1189E+02
     -5.321  0.1589E+01  0.1201E+02
     -5.248 -0.8685E-01  0.1200E+02
     -5.176 -0.6627E-03  0.1200E+02
     -5.103 -0.4119E-07  0.1200E+02
     -5.031 -0.3444E-13  0.1200E+02
     -4.958  0.0000E+00  0.1200E+02
     -4.885  0.0000E+00  0.1200E+02
     -4.813  0.0000E+00  0.1200E+02
     -4.740  0.0000E+00  0.1200E+02
     -4.667  0.0000E+00  0.1200E+02
     -4.595  0.0000E+00  0.1200E+02
     -4.522  0.0000E+00  0.1200E+02
     -4.449  0.0000E+00  0.1200E+02
     -4.377  0.0000E+00  0.1200E+02
     -4.304  0.0000E+00  0.1200E+02
     -4.232  0.0000E+00  0.1200E+02
     -4.159  0.0000E+00  0.1200E+02
     -4.086  0.0000E+00  0.1200E+02
     -4.014  0.0000E+00  0.1200E+02
     -3.941  0.0000E+00  0.1200E+02
     -3.868  0.0000E+00  0.1200E+02
     -3.796  0.0000E+00  0.1200E+02
     -3.723  0.0000E+00  0.1200E+02
     -3.650  0.0000E+00  0.1200E+02
     -3.578  0.0000E+00  0.1200E+02
     -3.505  0.0000E+00  0.1200E+02
     -3.433  0.0000E+00  0.1200E+02
     -3.360  0.0000E+00  0.1200E+02
     -3.287  0.0000E+00  0.1200E+02
     -3.215  0.0000E+00  0.1200E+02
     -3.142  0.0000E+00  0.1200E+02
     -3.069  0.0000E+00  0.1200E+02
     -2.997  0.0000E+00  0.1200E+02
     -2.924  0.0000E+00  0.1200E+02
     -2.851  0.0000E+00  0.1200E+02
     -2.779  0.0000E+00  0.1200E+02
     -2.706  0.0000E+00  0.1200E+02
     -2.634  0.0000E+00  0.1200E+02
     -2.561  0.0000E+00  0.1200E+02
     -2.488  0.0000E+00  0.1200E+02
     -2.416  0.0000E+00  0.1200E+02
     -2.343  0.0000E+00  0.1200E+02
     -2.270  0.0000E+00  0.1200E+02
     -2.198  0.0000E+00  0.1200E+02
     -2.125  0.0000E+00  0.1200E+02
     -2.053  0.0000E+00  0.1200E+02
     -1.980  0.0000E+00  0.1200E+02
     -1.907  0.0000E+00  0.1200E+02
     -1.835 -0.6995E-34  0.1200E+02
     -1.762 -0.1132E-23  0.1200E+02
     -1.689 -0.2590E-15  0.1200E+02
     -1.617 -0.7826E-09  0.1200E+02
     -1.544 -0.3153E-04  0.1200E+02
     -1.471 -0.1383E-01  0.1200E+02
     -1.399  0.1448E+00  0.1201E+02
     -1.326  0.1945E+01  0.1215E+02
     -1.254  0.2789E+01  0.1235E+02
     -1.181  0.4152E+01  0.1265E+02
     -1.108  0.2637E+01  0.1285E+02
     -1.036  0.2057E+01  0.1300E+02
     -0.963  0.2328E+00  0.1301E+02
     -0.890  0.9444E+00  0.1308E+02
     -0.818  0.1635E+01  0.1320E+02
     -0.745  0.7237E+00  0.1325E+02
     -0.672  0.1279E+01  0.1335E+02
     -0.600 -0.6011E-01  0.1334E+02
     -0.527 -0.3552E-01  0.1334E+02
     -0.455  0.5867E+00  0.1338E+02
     -0.382  0.1420E+01  0.1348E+02
     -0.309  0.1082E+00  0.1349E+02
     -0.237  0.1734E+01  0.1362E+02
     -0.164  0.4689E-01  0.1362E+02
     -0.091 -0.7190E-02  0.1362E+02
     -0.019 -0.5583E-03  0.1362E+02
      0.054 -0.2086E-01  0.1362E+02
      0.127  0.5009E+00  0.1366E+02
      0.199  0.4403E+00  0.1369E+02
      0.272  0.2171E+00  0.1370E+02
      0.344 -0.1285E-01  0.1370E+02
      0.417 -0.6468E-04  0.1370E+02
      0.490 -0.1588E-01  0.1370E+02
      0.562  0.2277E+00  0.1372E+02
      0.635  0.1742E+01  0.1384E+02
      0.708 -0.2466E-01  0.1384E+02
      0.780 -0.6229E-01  0.1384E+02
      0.853  0.1479E+01  0.1395E+02
      0.926  0.1512E+01  0.1406E+02
      0.998  0.2009E+01  0.1420E+02
      1.071  0.8188E+00  0.1426E+02
      1.143 -0.1235E+00  0.1425E+02
      1.216  0.3501E+01  0.1451E+02
      1.289  0.3238E+01  0.1474E+02
      1.361  0.1681E+00  0.1475E+02
      1.434 -0.1797E-01  0.1475E+02
      1.507 -0.4143E-01  0.1475E+02
      1.579  0.6155E+00  0.1479E+02
      1.652  0.3045E+01  0.1502E+02
      1.724  0.3911E+01  0.1530E+02
      1.797  0.1818E+01  0.1543E+02
      1.870  0.2952E+00  0.1545E+02
      1.942  0.1569E+01  0.1557E+02
      2.015  0.1720E+01  0.1569E+02
      2.088  0.2201E+01  0.1585E+02
      2.160  0.1359E+01  0.1595E+02
      2.233  0.4170E+01  0.1625E+02
      2.306  0.3920E+01  0.1654E+02
      2.378  0.5034E+00  0.1657E+02
      2.451  0.1279E+00  0.1658E+02
      2.523 -0.1815E-01  0.1658E+02
      2.596 -0.6733E-01  0.1658E+02
      2.669  0.4256E+01  0.1689E+02
      2.741  0.2078E+01  0.1704E+02
      2.814  0.3241E+01  0.1727E+02
      2.887  0.3621E+00  0.1730E+02
      2.959  0.2329E+01  0.1747E+02
      3.032  0.1608E-01  0.1747E+02
      3.105  0.1348E-01  0.1747E+02
      3.177  0.1236E+01  0.1756E+02
      3.250  0.2064E+01  0.1771E+02
      3.322  0.3592E+00  0.1774E+02
      3.395  0.2281E+00  0.1775E+02
      3.468  0.9336E+00  0.1782E+02
      3.540 -0.2193E-01  0.1782E+02
      3.613 -0.3037E-01  0.1782E+02
      3.686  0.1292E+01  0.1791E+02
      3.758  0.3628E+00  0.1794E+02
      3.831  0.5555E-01  0.1794E+02
      3.904  0.6027E+00  0.1799E+02
      3.976  0.4962E-01  0.1799E+02
      4.049 -0.8071E-02  0.1799E+02
      4.121  0.6987E-01  0.1799E+02
      4.194  0.9919E-01  0.1800E+02
      4.267  0.8566E-02  0.1800E+02
      4.339  0.6930E-01  0.1801E+02
      4.412 -0.1978E-02  0.1801E+02
      4.485 -0.1102E-03  0.1801E+02
      4.557 -0.1843E-07  0.1801E+02
      4.630 -0.3637E-13  0.1801E+02
      4.703  0.0000E+00  0.1801E+02
      4.775  0.0000E+00  0.1801E+02
      4.848  0.0000E+00  0.1801E+02
      4.920 -0.3847E-29  0.1801E+02
      4.993 -0.9993E-20  0.1801E+02
      5.066 -0.3514E-12  0.1801E+02
      5.138 -0.1688E-06  0.1801E+02
      5.211 -0.9535E-03  0.1801E+02
      5.284 -0.1471E-01  0.1800E+02
      5.356  0.5389E+00  0.1804E+02
      5.429  0.4710E+00  0.1808E+02
      5.501  0.7953E+00  0.1814E+02
      5.574  0.1469E+00  0.1815E+02
      5.647 -0.9838E-02  0.1815E+02
      5.719 -0.8119E-03  0.1815E+02
      5.792 -0.9337E-02  0.1815E+02
      5.865  0.4245E+00  0.1818E+02
      5.937  0.7199E-01  0.1818E+02
      6.010 -0.6236E-02  0.1818E+02
      6.083 -0.2180E-01  0.1818E+02
      6.155  0.8748E+00  0.1824E+02
      6.228  0.8365E+00  0.1830E+02
      6.300  0.1963E+01  0.1845E+02
      6.373  0.4585E+01  0.1878E+02
      6.446  0.2157E+01  0.1894E+02
      6.518  0.1463E+01  0.1904E+02
      6.591  0.2181E+01  0.1920E+02
      6.664 -0.7262E-01  0.1920E+02
      6.736  0.5355E+00  0.1923E+02
      6.809  0.1072E+01  0.1931E+02
      6.882  0.8805E-01  0.1932E+02
      6.954 -0.3692E-01  0.1932E+02
      7.027  0.9412E+00  0.1938E+02
      7.099  0.5100E+00  0.1942E+02
      7.172  0.1130E+01  0.1950E+02
      7.245  0.1491E+01  0.1961E+02
      7.317  0.3429E+01  0.1986E+02
      7.390  0.1581E+01  0.1998E+02
      7.463  0.3912E+01  0.2026E+02
      7.535  0.1478E+01  0.2037E+02
      7.608  0.1245E-01  0.2037E+02
      7.681 -0.5029E-02  0.2037E+02
      7.753 -0.3410E-03  0.2037E+02
      7.826  0.4902E-02  0.2037E+02
      7.898  0.3616E-01  0.2037E+02
      7.971 -0.5465E-02  0.2037E+02
      8.044  0.8047E-01  0.2038E+02
      8.116  0.2235E+00  0.2039E+02
      8.189 -0.8315E-01  0.2039E+02
      8.262  0.2205E+01  0.2055E+02
      8.334  0.1349E+01  0.2064E+02
      8.407 -0.8310E-01  0.2064E+02
      8.480  0.7524E-01  0.2064E+02
      8.552  0.8857E+00  0.2071E+02
      8.625  0.1067E+00  0.2072E+02
      8.697  0.3614E+00  0.2074E+02
      8.770  0.3111E+00  0.2076E+02
      8.843  0.1221E+01  0.2085E+02
      8.915  0.8323E+00  0.2091E+02
      8.988  0.2423E+00  0.2093E+02
      9.061 -0.2622E-01  0.2093E+02
      9.133  0.1884E+00  0.2094E+02
      9.206  0.3208E+00  0.2097E+02
      9.278 -0.1657E-01  0.2097E+02
      9.351 -0.4261E-02  0.2096E+02
      9.424  0.5938E-01  0.2097E+02
      9.496  0.4338E+00  0.2100E+02
      9.569 -0.6471E-02  0.2100E+02
      9.642 -0.9486E-03  0.2100E+02
      9.714 -0.2073E-06  0.2100E+02
      9.787 -0.5265E-12  0.2100E+02
      9.860  0.0000E+00  0.2100E+02
      9.932  0.0000E+00  0.2100E+02
     10.005  0.0000E+00  0.2100E+02
     10.077  0.0000E+00  0.2100E+02
     10.150  0.0000E+00  0.2100E+02
     10.223  0.0000E+00  0.2100E+02
     10.295  0.0000E+00  0.2100E+02
     10.368  0.0000E+00  0.2100E+02
     10.441  0.0000E+00  0.2100E+02
     10.44063376    -11.34971695  301      4.16907030      1.00000000
    -11.350  0.0000E+00  0.0000E+00  0.0000E+00  0.0000E+00  0.0000E+00  0.0000E+00  0.0000E+00  0.0000E+00  0.0000E+00  0.0000E+00  0.0000E+00  0.0000E+00  0.0000E+00  0.0000E+00  0.0000E+00  0.0000E+00  0.0000E+00  0.0000E+00  0.0000E+00  0.0000E+00  0.0000E+00  0.0000E+00  0.0000E+00  0.0000E+00  0.0000E+00  0.0000E+00  0.0000E+00  0.0000E+00  0.0000E+00  0.0000E+00  0.0000E+00  0.0000E+00  0.0000E+00  0.0000E+00  0.0000E+00  0.0000E+00
    -11.277  0.0000E+00  0.0000E+00  0.0000E+00  0.0000E+00  0.0000E+00  0.0000E+00  0.0000E+00  0.0000E+00  0.0000E+00  0.0000E+00  0.0000E+00  0.0000E+00  0.0000E+00  0.0000E+00  0.0000E+00  0.0000E+00  0.0000E+00  0.0000E+00  0.0000E+00  0.0000E+00  0.0000E+00  0.0000E+00  0.0000E+00  0.0000E+00  0.0000E+00  0.0000E+00  0.0000E+00  0.0000E+00  0.0000E+00  0.0000E+00  0.0000E+00  0.0000E+00  0.0000E+00  0.0000E+00  0.0000E+00  0.0000E+00
    -11.204  0.0000E+00  0.0000E+00  0.0000E+00  0.0000E+00  0.0000E+00  0.0000E+00  0.0000E+00  0.0000E+00  0.0000E+00  0.0000E+00  0.0000E+00  0.0000E+00  0.0000E+00  0.0000E+00  0.0000E+00  0.0000E+00  0.0000E+00  0.0000E+00  0.0000E+00  0.0000E+00  0.0000E+00  0.0000E+00  0.0000E+00  0.0000E+00  0.0000E+00  0.0000E+00  0.0000E+00  0.0000E+00  0.0000E+00  0.0000E+00  0.0000E+00  0.0000E+00  0.0000E+00  0.0000E+00  0.0000E+00  0.0000E+00
    -11.132  0.0000E+00  0.0000E+00  0.0000E+00  0.0000E+00  0.0000E+00  0.0000E+00  0.0000E+00  0.0000E+00  0.0000E+00  0.0000E+00  0.0000E+00  0.0000E+00  0.0000E+00  0.0000E+00  0.0000E+00  0.0000E+00  0.0000E+00  0.0000E+00  0.0000E+00  0.0000E+00  0.0000E+00  0.0000E+00  0.0000E+00  0.0000E+00  0.0000E+00  0.0000E+00  0.0000E+00  0.0000E+00  0.0000E+00  0.0000E+00  0.0000E+00  0.0000E+00  0.0000E+00  0.0000E+00  0.0000E+00  0.0000E+00
    -11.059  0.0000E+00  0.0000E+00  0.0000E+00  0.0000E+00  0.0000E+00  0.0000E+00  0.0000E+00  0.0000E+00  0.0000E+00  0.0000E+00  0.0000E+00  0.0000E+00  0.0000E+00  0.0000E+00  0.0000E+00  0.0000E+00  0.0000E+00  0.0000E+00  0.0000E+00  0.0000E+00  0.0000E+00  0.0000E+00  0.0000E+00  0.0000E+00  0.0000E+00  0.0000E+00  0.0000E+00  0.0000E+00  0.0000E+00  0.0000E+00  0.0000E+00  0.0000E+00  0.0000E+00  0.0000E+00  0.0000E+00  0.0000E+00
    -10.987  0.0000E+00  0.0000E+00  0.0000E+00  0.0000E+00  0.0000E+00  0.0000E+00  0.0000E+00  0.0000E+00  0.0000E+00  0.0000E+00  0.0000E+00  0.0000E+00  0.0000E+00  0.0000E+00  0.0000E+00  0.0000E+00  0.0000E+00  0.0000E+00  0.0000E+00  0.0000E+00  0.0000E+00  0.0000E+00  0.0000E+00  0.0000E+00  0.0000E+00  0.0000E+00  0.0000E+00  0.0000E+00  0.0000E+00  0.0000E+00  0.0000E+00  0.0000E+00  0.0000E+00  0.0000E+00  0.0000E+00  0.0000E+00
    -10.914  0.0000E+00  0.0000E+00  0.0000E+00  0.0000E+00  0.0000E+00  0.0000E+00  0.0000E+00  0.0000E+00  0.0000E+00  0.0000E+00  0.0000E+00  0.0000E+00  0.0000E+00  0.0000E+00  0.0000E+00  0.0000E+00  0.0000E+00  0.0000E+00  0.0000E+00  0.0000E+00  0.0000E+00  0.0000E+00  0.0000E+00  0.0000E+00  0.0000E+00  0.0000E+00  0.0000E+00  0.0000E+00  0.0000E+00  0.0000E+00  0.0000E+00  0.0000E+00  0.0000E+00  0.0000E+00  0.0000E+00  0.0000E+00
    -10.841  0.0000E+00  0.0000E+00  0.0000E+00  0.0000E+00  0.0000E+00  0.0000E+00  0.0000E+00  0.0000E+00  0.0000E+00  0.0000E+00  0.0000E+00  0.0000E+00  0.0000E+00  0.0000E+00  0.0000E+00  0.0000E+00  0.0000E+00  0.0000E+00  0.0000E+00  0.0000E+00  0.0000E+00  0.0000E+00  0.0000E+00  0.0000E+00  0.0000E+00  0.0000E+00  0.0000E+00  0.0000E+00  0.0000E+00  0.0000E+00  0.0000E+00  0.0000E+00  0.0000E+00  0.0000E+00  0.0000E+00  0.0000E+00
    -10.769 -0.1312E-32 -0.1682E-33  0.1171E-32  0.4472E-34 -0.1468E-32  0.5596E-33  0.1306E-32 -0.8247E-36 -0.2106E-31  0.5154E-32  0.2005E-31 -0.3700E-33 -0.1335E-31  0.4006E-32  0.1262E-31 -0.9308E-34 -0.8208E-29  0.1923E-29  0.7826E-29 -0.1680E-30 -0.5792E-29  0.1360E-29  0.5598E-29 -0.4690E-31 -0.1064E-29  0.6833E-30 -0.6901E-30  0.4056E-31 -0.6105E-30  0.3949E-30  0.3789E-30  0.2207E-31 -0.4401E-29 -0.1050E-29 -0.4193E-29 -0.8820E-31
    -10.696 -0.3597E-23 -0.1061E-24  0.3190E-23  0.1143E-24 -0.3965E-23  0.1666E-23  0.3433E-23 -0.2012E-25 -0.5068E-22  0.1299E-22  0.4769E-22 -0.1306E-23 -0.3083E-22  0.9304E-23  0.2900E-22 -0.3915E-24 -0.1988E-19  0.4924E-20  0.1873E-19 -0.5901E-21 -0.1354E-19  0.3178E-20  0.1305E-19 -0.1950E-21 -0.2523E-20  0.1587E-20 -0.1514E-20  0.1593E-21 -0.1720E-20  0.1123E-20  0.1010E-20  0.6605E-22 -0.1064E-19 -0.2683E-20 -0.1002E-19 -0.3123E-21
    -10.623 -0.1484E-15  0.1141E-16  0.1308E-15  0.3308E-17 -0.1584E-15  0.7241E-16  0.1336E-15 -0.1937E-17 -0.1741E-14  0.4768E-15  0.1612E-14 -0.6479E-16 -0.1010E-14  0.3093E-15  0.9419E-15 -0.2284E-16 -0.6902E-12  0.1846E-12  0.6389E-12 -0.2915E-13 -0.4509E-12  0.1069E-12  0.4321E-12 -0.1127E-13 -0.8623E-13  0.5296E-13 -0.4565E-13  0.8786E-14 -0.7153E-13  0.4677E-13  0.4033E-13  0.2640E-14 -0.3694E-12 -0.1004E-12 -0.3418E-12 -0.1557E-13
    -10.551 -0.9606E-10  0.1745E-10  0.8396E-10  0.5439E-12 -0.9638E-10  0.4693E-10  0.7943E-10 -0.2040E-11 -0.8819E-09  0.2633E-09  0.7980E-09 -0.4604E-10 -0.4866E-09  0.1539E-09  0.4482E-09 -0.1861E-10 -0.3556E-06  0.1050E-06  0.3213E-06 -0.2071E-07 -0.2221E-06  0.5443E-07  0.2108E-06 -0.9137E-08 -0.4438E-07  0.2668E-07 -0.1920E-07  0.6879E-08 -0.4522E-07  0.2925E-07  0.2510E-07  0.1440E-08 -0.1907E-06 -0.5718E-07 -0.1723E-06 -0.1118E-07
    -10.478 -0.9222E-06  0.2651E-06  0.7850E-06 -0.1378E-07 -0.8167E-06  0.4169E-06  0.6582E-06 -0.2399E-07 -0.5970E-05  0.1978E-05  0.5189E-05 -0.4186E-06 -0.3129E-05  0.1052E-05  0.2820E-05 -0.1867E-06 -0.2492E-02  0.8248E-03  0.2151E-02 -0.1908E-03 -0.1478E-02  0.3901E-03  0.1373E-02 -0.9142E-04 -0.3194E-03  0.1869E-03 -0.9271E-04  0.6803E-04 -0.4061E-03  0.2550E-03  0.2277E-03  0.9704E-05 -0.1348E-02 -0.4534E-03 -0.1163E-02 -0.1042E-03
    -10.405 -0.9610E-04  0.3646E-04  0.6411E-04 -0.3006E-05 -0.6076E-04  0.3198E-04  0.4179E-04 -0.2774E-05 -0.2719E-03  0.9009E-04  0.1686E-03 -0.2238E-04 -0.1230E-03  0.4527E-04  0.9368E-04 -0.1024E-04 -0.1369E+00  0.4261E-01  0.7843E-01 -0.1018E-01 -0.6990E-01  0.2129E-01  0.5428E-01 -0.4809E-02 -0.2416E-01  0.6458E-02  0.2080E-02  0.4640E-02 -0.4340E-01  0.2276E-01  0.2380E-01 -0.1356E-02 -0.7750E-01 -0.2468E-01 -0.4443E-01 -0.5505E-02
    -10.333  0.1721E-02 -0.7049E-03 -0.1340E-02  0.5239E-04  0.1140E-02 -0.6446E-03 -0.8970E-03  0.4247E-04  0.6181E-02 -0.2175E-02 -0.4590E-02  0.5142E-03  0.2910E-02 -0.1113E-02 -0.2499E-02  0.2240E-03  0.2806E+01 -0.1010E+01 -0.2081E+01  0.2430E+00  0.1386E+01 -0.4912E+00 -0.1374E+01  0.1069E+00  0.2759E+00 -0.1811E+00  0.1455E-01 -0.9135E-01  0.5733E+00 -0.4470E+00 -0.4439E+00  0.2127E-02  0.1537E+01  0.5799E+00  0.1167E+01  0.1321E+00
    -10.260  0.5108E-02 -0.3707E-03 -0.3991E-03  0.6206E-04  0.3402E-02 -0.9363E-03 -0.6766E-03  0.2969E-03  0.9211E-02  0.3492E-03  0.1113E-02 -0.9455E-04  0.4319E-02 -0.2269E-04 -0.4037E-03  0.9214E-04  0.7405E+01  0.4253E+00  0.1022E+01 -0.2565E+00  0.5511E+01 -0.1245E+00 -0.3343E+00  0.2011E-01  0.4510E+01  0.3368E+00 -0.4385E+00 -0.1946E+00  0.5938E+01 -0.8600E+00 -0.1159E+01  0.4430E+00  0.4759E+01 -0.2515E+00 -0.6460E+00 -0.1596E+00
    -10.188  0.5379E-03  0.1173E-03  0.1783E-03  0.1558E-04  0.1209E-02  0.4638E-03  0.7723E-04 -0.2284E-03  0.4515E-03  0.1136E-03  0.3873E-03 -0.4073E-04  0.1158E-02  0.5053E-04  0.5829E-03  0.1400E-03  0.2787E+01  0.5561E+00  0.1075E+01 -0.9388E-02  0.4845E+01  0.7726E+00  0.1766E+01 -0.1002E+00  0.4850E+01 -0.2495E+00  0.3622E+00  0.3670E+00  0.4788E+01  0.1366E+01  0.1919E+01 -0.4765E+00  0.2308E+01 -0.5398E+00 -0.9099E+00  0.3909E-01
    -10.115 -0.3777E-04 -0.3448E-05 -0.5281E-05 -0.1161E-05 -0.5686E-04 -0.1678E-04  0.3610E-05  0.5931E-05 -0.4687E-04 -0.5436E-05 -0.2095E-04  0.1232E-05 -0.6109E-04  0.1596E-05 -0.2791E-04 -0.6837E-05 -0.1278E+00 -0.6719E-02 -0.4529E-01 -0.4140E-02 -0.2006E+00 -0.5829E-02 -0.9142E-01 -0.5006E-02 -0.1835E+00  0.2992E-01  0.2728E-01 -0.2403E-02 -0.1783E+00 -0.5495E-01 -0.2869E-01  0.9731E-02 -0.1009E+00  0.7929E-02  0.3717E-01 -0.5399E-02
    -10.042 -0.3924E-06 -0.5080E-07 -0.1025E-06 -0.1810E-08 -0.1205E-05 -0.4153E-06 -0.2564E-06  0.3549E-06 -0.3058E-06 -0.2087E-08 -0.8293E-07  0.4356E-07 -0.1000E-05 -0.1471E-06 -0.2400E-06 -0.1029E-06 -0.2886E-02 -0.1251E-02 -0.1005E-02  0.2257E-03 -0.5126E-02 -0.1883E-02 -0.7457E-03  0.5158E-03 -0.5792E-02 -0.6840E-03 -0.2244E-02 -0.9249E-03 -0.5993E-02 -0.1248E-02 -0.4017E-02  0.8843E-03 -0.2444E-02  0.1158E-02  0.9042E-03  0.1420E-03
     -9.970 -0.5625E-10 -0.1269E-10 -0.2535E-10  0.1696E-11 -0.2043E-09 -0.6445E-10 -0.7705E-10  0.6378E-10 -0.4051E-10 -0.7039E-11 -0.5933E-11  0.1088E-10 -0.1525E-09 -0.5197E-10 -0.6363E-11 -0.9924E-11 -0.5341E-06 -0.3303E-06 -0.1630E-06  0.6159E-07 -0.8967E-06 -0.4832E-06  0.2739E-07  0.1232E-06 -0.1101E-05 -0.2528E-06 -0.6463E-06 -0.1992E-06 -0.1203E-05 -0.1990E-06 -0.9633E-06  0.1730E-06 -0.4569E-06  0.2956E-06  0.1495E-06  0.4376E-07
     -9.897 -0.1194E-15 -0.3639E-16 -0.7090E-16  0.5786E-17 -0.4906E-15 -0.1495E-15 -0.2433E-15  0.1453E-15 -0.8902E-16 -0.2892E-16 -0.1296E-17  0.2776E-16 -0.3504E-15 -0.1710E-15  0.3514E-16 -0.1336E-16 -0.1415E-11 -0.1021E-11 -0.3799E-12  0.1601E-12 -0.2234E-11 -0.1459E-11  0.3139E-12  0.3162E-12 -0.2885E-11 -0.8378E-12 -0.2031E-11 -0.4946E-12 -0.3270E-11 -0.4868E-12 -0.2841E-11  0.4142E-12 -0.1217E-11  0.9018E-12  0.3538E-12  0.1167E-12
     -9.824 -0.1069E-12 -0.3056E-13 -0.9779E-13  0.8426E-14 -0.1858E-12 -0.1691E-12  0.3742E-13  0.1230E-13 -0.1243E-11 -0.3460E-12 -0.1178E-11  0.9649E-14 -0.8568E-12 -0.1113E-12 -0.8469E-12  0.1739E-13 -0.2769E-09 -0.7395E-10 -0.2629E-09 -0.4337E-11 -0.2530E-09  0.5188E-10 -0.2455E-09  0.4817E-11 -0.6532E-10 -0.3936E-10  0.4626E-10  0.1699E-11 -0.1570E-09 -0.6063E-10  0.1406E-09  0.4429E-11 -0.4926E-10  0.8511E-11  0.4673E-10  0.1993E-11
     -9.752 -0.1047E-07 -0.3570E-08 -0.9244E-08  0.1271E-08 -0.1415E-07 -0.1245E-07  0.1411E-08  0.1818E-08 -0.8190E-07 -0.2466E-07 -0.7605E-07  0.1418E-08 -0.5418E-07 -0.7073E-08 -0.5332E-07  0.2570E-08 -0.1873E-04 -0.5501E-05 -0.1737E-04 -0.6403E-06 -0.1679E-04  0.3742E-05 -0.1608E-04  0.7141E-06 -0.4175E-05 -0.2515E-05  0.2548E-05  0.2490E-06 -0.1092E-04 -0.4558E-05  0.9371E-05  0.6558E-06 -0.3448E-05  0.7357E-06  0.3121E-05  0.2924E-06
     -9.679 -0.1529E-04 -0.6018E-05 -0.1300E-04  0.2214E-05 -0.1511E-04 -0.1279E-04 -0.2480E-06  0.2973E-05 -0.7156E-04 -0.2455E-04 -0.6401E-04  0.2307E-05 -0.4392E-04 -0.5766E-05 -0.4288E-04  0.4202E-05 -0.1730E-01 -0.5911E-02 -0.1540E-01 -0.1066E-02 -0.1498E-01  0.3844E-02 -0.1400E-01  0.1186E-02 -0.3461E-02 -0.2090E-02  0.1482E-02  0.4041E-03 -0.1055E-01 -0.4942E-02  0.8428E-02  0.1090E-02 -0.3385E-02  0.9723E-03  0.2830E-02  0.4828E-03
     -9.606  0.5318E-05 -0.2461E-04  0.3399E-04 -0.1552E-04  0.1319E-03  0.1134E-03 -0.1228E-04 -0.3287E-04  0.8063E-03  0.2315E-03  0.7846E-03 -0.2476E-04  0.5547E-03  0.7254E-04  0.5489E-03 -0.4489E-04  0.1616E+00  0.4055E-01  0.1681E+00  0.9978E-02  0.1532E+00 -0.2830E-01  0.1559E+00 -0.1154E-01  0.4110E-01  0.2519E-01 -0.2870E-01 -0.4284E-02  0.9011E-01  0.3216E-01 -0.8875E-01 -0.1081E-01  0.2738E-01 -0.5940E-02 -0.3172E-01 -0.4636E-02
     -9.534  0.4917E-02  0.2504E-02  0.3935E-02 -0.5208E-03  0.2873E-02  0.2493E-02  0.3171E-03 -0.5042E-03  0.1055E-01  0.4605E-02  0.8831E-02 -0.3916E-03  0.5526E-02  0.7511E-03  0.5427E-02 -0.7310E-03  0.2998E+01  0.1394E+01  0.2527E+01  0.2137E+00  0.2421E+01 -0.8670E+00  0.2192E+01 -0.2232E+00  0.4322E+00  0.3106E+00 -0.1360E-01 -0.5870E-01  0.1966E+01  0.1172E+01 -0.1428E+01 -0.2094E+00  0.5437E+00 -0.3018E+00 -0.5449E+00 -0.9541E-01
     -9.461  0.6137E-02  0.3956E-03  0.4334E-03  0.1033E-03  0.2195E-02  0.2642E-03 -0.1587E-03  0.1502E-03  0.7662E-02 -0.9734E-03 -0.2262E-02 -0.8972E-04  0.2642E-02 -0.1091E-03 -0.1642E-03  0.2727E-04  0.4182E+01 -0.5951E+00 -0.1220E+01 -0.1006E+00  0.2444E+01  0.2171E+00 -0.1032E+00 -0.1668E-01  0.5480E+00 -0.4042E+00 -0.1422E+00 -0.2035E+00  0.2544E+01 -0.1249E-02  0.3598E+00  0.1289E+00  0.2527E+01  0.1142E+01  0.1851E+01  0.6409E-01
     -9.389  0.3106E-02 -0.9988E-03 -0.1297E-02  0.2395E-03  0.3537E-02 -0.1116E-02  0.1800E-02  0.1583E-03  0.3540E-02 -0.1275E-02 -0.2659E-02 -0.1146E-03  0.3626E-02  0.8807E-03 -0.2268E-02  0.1184E-03  0.3950E+01 -0.7419E+00 -0.1794E+01 -0.2743E+00  0.6123E+01  0.1470E+01 -0.2635E+01  0.5590E-01  0.9152E+01  0.8016E+00  0.1772E+01 -0.8317E-01  0.6373E+01 -0.1350E+01  0.2550E+01  0.6052E-01  0.8027E+01  0.7861E+00  0.1756E+01  0.1289E-01
     -9.316  0.7259E-03  0.2127E-04 -0.1015E-03 -0.5801E-04  0.1440E-02 -0.2809E-04  0.4218E-03  0.2790E-04  0.4755E-03  0.6460E-04  0.1619E-03 -0.1501E-04  0.1142E-02  0.1590E-03  0.2509E-04 -0.3204E-04  0.1998E+01 -0.1290E+00  0.2474E+00  0.1965E+00  0.4033E+01 -0.9921E+00  0.3394E+00  0.1870E+00  0.7655E+01 -0.7015E+00 -0.1610E+01  0.2759E+00  0.4777E+01  0.9609E-01 -0.1743E+01  0.5997E-01  0.7729E+01 -0.1430E+01 -0.2709E+01  0.2622E-01
     -9.243 -0.4316E-04  0.1922E-05  0.7874E-05  0.1876E-05 -0.7298E-04  0.6316E-05 -0.3158E-04 -0.1740E-05 -0.2862E-04  0.1403E-05  0.1810E-05  0.7863E-06 -0.5929E-04 -0.1235E-04  0.8203E-05  0.1189E-05 -0.8476E-01  0.8101E-02 -0.1919E-02 -0.6721E-02 -0.1759E+00  0.2210E-01  0.3748E-02 -0.4530E-02 -0.3414E+00  0.2403E-01  0.4767E-01 -0.7836E-02 -0.1956E+00  0.7056E-02  0.2799E-01 -0.3584E-02 -0.2897E+00  0.2985E-01  0.6108E-01 -0.3784E-02
     -9.171 -0.4486E-06  0.1755E-07  0.1357E-06  0.5201E-07 -0.9834E-06 -0.1295E-06  0.2433E-06 -0.1601E-07 -0.5913E-06 -0.4958E-07 -0.1336E-06  0.1440E-07 -0.8815E-06  0.9859E-07 -0.2328E-06  0.1731E-07 -0.2283E-02  0.1524E-03 -0.3647E-03 -0.2328E-03 -0.3902E-02  0.1742E-02 -0.1012E-02 -0.3502E-03 -0.6703E-02  0.1071E-02  0.2595E-02 -0.3879E-03 -0.5117E-02 -0.5485E-03  0.3629E-02 -0.1268E-04 -0.9535E-02  0.2551E-02  0.4732E-02  0.5512E-04
     -9.098 -0.4885E-10 -0.1134E-11  0.1195E-10  0.4924E-11 -0.1436E-09 -0.2163E-10  0.5856E-10 -0.1980E-11 -0.8828E-10 -0.1156E-10 -0.2523E-10  0.3904E-11 -0.1268E-09  0.2342E-10 -0.3661E-10  0.1115E-11 -0.3502E-06  0.3031E-08 -0.6805E-07 -0.2922E-07 -0.6024E-06  0.2998E-06 -0.1704E-06 -0.6239E-07 -0.9396E-06  0.1128E-06  0.3495E-06 -0.7195E-07 -0.8399E-06 -0.1011E-06  0.6547E-06  0.2603E-08 -0.1600E-05  0.5093E-06  0.8851E-06  0.3234E-07
     -9.025 -0.7572E-16 -0.6246E-17  0.1170E-16  0.5158E-17 -0.2929E-15 -0.4350E-16  0.1400E-15 -0.3988E-17 -0.1737E-15 -0.2926E-16 -0.5610E-16  0.1045E-16 -0.2527E-15  0.5866E-16 -0.7123E-16 -0.3664E-19 -0.6876E-12 -0.3482E-13 -0.1554E-12 -0.4464E-13 -0.1237E-11  0.6447E-12 -0.3612E-12 -0.1351E-12 -0.1743E-11  0.1254E-12  0.5817E-12 -0.1569E-12 -0.1782E-11 -0.2269E-12  0.1431E-11  0.8806E-14 -0.3428E-11  0.1214E-11  0.2013E-11  0.1037E-12
     -8.953  0.0000E+00  0.0000E+00  0.0000E+00  0.0000E+00  0.0000E+00  0.0000E+00  0.0000E+00  0.0000E+00  0.0000E+00  0.0000E+00  0.0000E+00  0.0000E+00  0.0000E+00  0.0000E+00  0.0000E+00  0.0000E+00  0.0000E+00  0.0000E+00  0.0000E+00  0.0000E+00  0.0000E+00  0.0000E+00  0.0000E+00  0.0000E+00  0.0000E+00  0.0000E+00  0.0000E+00  0.0000E+00  0.0000E+00  0.0000E+00  0.0000E+00  0.0000E+00  0.0000E+00  0.0000E+00  0.0000E+00  0.0000E+00
     -8.880  0.0000E+00  0.0000E+00  0.0000E+00  0.0000E+00  0.0000E+00  0.0000E+00  0.0000E+00  0.0000E+00  0.0000E+00  0.0000E+00  0.0000E+00  0.0000E+00  0.0000E+00  0.0000E+00  0.0000E+00  0.0000E+00  0.0000E+00  0.0000E+00  0.0000E+00  0.0000E+00  0.0000E+00  0.0000E+00  0.0000E+00  0.0000E+00  0.0000E+00  0.0000E+00  0.0000E+00  0.0000E+00  0.0000E+00  0.0000E+00  0.0000E+00  0.0000E+00  0.0000E+00  0.0000E+00  0.0000E+00  0.0000E+00
     -8.808  0.0000E+00  0.0000E+00  0.0000E+00  0.0000E+00  0.0000E+00  0.0000E+00  0.0000E+00  0.0000E+00  0.0000E+00  0.0000E+00  0.0000E+00  0.0000E+00  0.0000E+00  0.0000E+00  0.0000E+00  0.0000E+00  0.0000E+00  0.0000E+00  0.0000E+00  0.0000E+00  0.0000E+00  0.0000E+00  0.0000E+00  0.0000E+00  0.0000E+00  0.0000E+00  0.0000E+00  0.0000E+00  0.0000E+00  0.0000E+00  0.0000E+00  0.0000E+00  0.0000E+00  0.0000E+00  0.0000E+00  0.0000E+00
     -8.735  0.0000E+00  0.0000E+00  0.0000E+00  0.0000E+00  0.0000E+00  0.0000E+00  0.0000E+00  0.0000E+00  0.0000E+00  0.0000E+00  0.0000E+00  0.0000E+00  0.0000E+00  0.0000E+00  0.0000E+00  0.0000E+00  0.0000E+00  0.0000E+00  0.0000E+00  0.0000E+00  0.0000E+00  0.0000E+00  0.0000E+00  0.0000E+00  0.0000E+00  0.0000E+00  0.0000E+00  0.0000E+00  0.0000E+00  0.0000E+00  0.0000E+00  0.0000E+00  0.0000E+00  0.0000E+00  0.0000E+00  0.0000E+00
     -8.662  0.0000E+00  0.0000E+00  0.0000E+00  0.0000E+00  0.0000E+00  0.0000E+00  0.0000E+00  0.0000E+00  0.0000E+00  0.0000E+00  0.0000E+00  0.0000E+00  0.0000E+00  0.0000E+00  0.0000E+00  0.0000E+00  0.0000E+00  0.0000E+00  0.0000E+00  0.0000E+00  0.0000E+00  0.0000E+00  0.0000E+00  0.0000E+00  0.0000E+00  0.0000E+00  0.0000E+00  0.0000E+00  0.0000E+00  0.0000E+00  0.0000E+00  0.0000E+00  0.0000E+00  0.0000E+00  0.0000E+00  0.0000E+00
     -8.590  0.0000E+00  0.0000E+00  0.0000E+00  0.0000E+00  0.0000E+00  0.0000E+00  0.0000E+00  0.0000E+00  0.0000E+00  0.0000E+00  0.0000E+00  0.0000E+00  0.0000E+00  0.0000E+00  0.0000E+00  0.0000E+00  0.0000E+00  0.0000E+00  0.0000E+00  0.0000E+00  0.0000E+00  0.0000E+00  0.0000E+00  0.0000E+00  0.0000E+00  0.0000E+00  0.0000E+00  0.0000E+00  0.0000E+00  0.0000E+00  0.0000E+00  0.0000E+00  0.0000E+00  0.0000E+00  0.0000E+00  0.0000E+00
     -8.517  0.0000E+00  0.0000E+00  0.0000E+00  0.0000E+00  0.0000E+00  0.0000E+00  0.0000E+00  0.0000E+00  0.0000E+00  0.0000E+00  0.0000E+00  0.0000E+00  0.0000E+00  0.0000E+00  0.0000E+00  0.0000E+00  0.0000E+00  0.0000E+00  0.0000E+00  0.0000E+00  0.0000E+00  0.0000E+00  0.0000E+00  0.0000E+00  0.0000E+00  0.0000E+00  0.0000E+00  0.0000E+00  0.0000E+00  0.0000E+00  0.0000E+00  0.0000E+00  0.0000E+00  0.0000E+00  0.0000E+00  0.0000E+00
     -8.444  0.0000E+00  0.0000E+00  0.0000E+00  0.0000E+00  0.0000E+00  0.0000E+00  0.0000E+00  0.0000E+00  0.0000E+00  0.0000E+00  0.0000E+00  0.0000E+00  0.0000E+00  0.0000E+00  0.0000E+00  0.0000E+00  0.0000E+00  0.0000E+00  0.0000E+00  0.0000E+00  0.0000E+00  0.0000E+00  0.0000E+00  0.0000E+00  0.0000E+00  0.0000E+00  0.0000E+00  0.0000E+00  0.0000E+00  0.0000E+00  0.0000E+00  0.0000E+00  0.0000E+00  0.0000E+00  0.0000E+00  0.0000E+00
     -8.372  0.0000E+00  0.0000E+00  0.0000E+00  0.0000E+00  0.0000E+00  0.0000E+00  0.0000E+00  0.0000E+00  0.0000E+00  0.0000E+00  0.0000E+00  0.0000E+00  0.0000E+00  0.0000E+00  0.0000E+00  0.0000E+00  0.0000E+00  0.0000E+00  0.0000E+00  0.0000E+00  0.0000E+00  0.0000E+00  0.0000E+00  0.0000E+00  0.0000E+00  0.0000E+00  0.0000E+00  0.0000E+00  0.0000E+00  0.0000E+00  0.0000E+00  0.0000E+00  0.0000E+00  0.0000E+00  0.0000E+00  0.0000E+00