    2    2    1    1
  0.2779610E+02  0.4283936E-09  0.4283936E-09  0.4283936E-09  0.5000000E-15
  1.000000000000000E-004
  CAR 
 unknown system                          
     18     30     21
 
  0.0000000E+00  0.0000000E+00  0.0000000E+00  0.2915452E-02
    1      -10.273146   1.000000
    2      -10.273146   1.000000
    3      -10.273138   1.000000
    4      -10.273138   1.000000
    5       -9.482277   1.000000
    6       -9.482277   1.000000
    7       -9.396346   1.000000
    8       -9.396346   1.000000
    9       -9.396341   1.000000
   10       -9.396341   1.000000
   11       -7.312785   1.000000
   12       -7.312785   1.000000
   13        3.807097   1.000000
   14        3.807130   1.000000
   15        4.126726   1.001684
   16        4.126726   1.001702
   17        4.126726   1.001857
   18        4.126893   1.003616
   19        4.288797   0.002496
   20        4.288996  -0.011355
   21        7.852310   0.000000
 
  0.1428571E+00  0.0000000E+00  0.0000000E+00  0.1166181E-01
    1      -10.277650   1.000000
    2      -10.277650   1.000000
    3      -10.275477   1.000000
    4      -10.267520   1.000000
    5       -9.486877   1.000000
    6       -9.486876   1.000000
    7       -9.405949   1.000000
    8       -9.405948   1.000000
    9       -9.395155   1.000000
   10       -9.385312   1.000000
   11       -7.111543   1.000000
   12       -7.111543   1.000000
   13        2.097839   1.000000
   14        2.097839   1.000000
   15        3.655319   1.000000
   16        3.655320   1.000000
   17        3.867070   1.000000
   18        3.877041   1.000000
   19        5.424610  -0.000000
   20        5.424610  -0.000000
   21        8.043932   0.000000
 
  0.2857143E+00  0.0000000E+00  0.0000000E+00  0.1166181E-01
    1      -10.288944   1.000000
    2      -10.288944   1.000000
    3      -10.273040   1.000000
    4      -10.263183   1.000000
    5       -9.495664   1.000000
    6       -9.495664   1.000000
    7       -9.422674   1.000000
    8       -9.422673   1.000000
    9       -9.382017   1.000000
   10       -9.369781   1.000000
   11       -6.579005   1.000000
   12       -6.579005   1.000000
   13        0.109489   1.000000
   14        0.109489   1.000000
   15        3.199749   1.000000
   16        3.199749   1.000000
   17        3.417468   1.000000
   18        3.428164   1.000000
   19        5.485163  -0.000000
   20        5.485163  -0.000000
   21        8.630725   0.000000
 
  0.4285714E+00  0.0000000E+00  0.0000000E+00  0.1166181E-01
    1      -10.299173   1.000000
    2      -10.299173   1.000000
    3      -10.267899   1.000000
    4      -10.263537   1.000000
    5       -9.501209   1.000000
    6       -9.501208   1.000000
    7       -9.432517   1.000000
    8       -9.432517   1.000000
    9       -9.366620   1.000000
   10       -9.361189   1.000000
   11       -6.004094   1.000000
   12       -6.004094   1.000000
   13       -1.247871   1.000000
   14       -1.247871   1.000000
   15        2.908274   1.000000
   16        2.908274   1.000000
   17        3.131722   1.000000
   18        3.136130   1.000000
   19        5.333124  -0.000000
   20        5.333124  -0.000000
   21        8.688728   0.000000
 
 -0.4285714E+00  0.0000000E+00  0.0000000E+00  0.1166181E-01
    1      -10.299173   1.000000
    2      -10.299173   1.000000
    3      -10.267899   1.000000
    4      -10.263537   1.000000
    5       -9.501209   1.000000
    6       -9.501208   1.000000
    7       -9.432517   1.000000
    8       -9.432517   1.000000
    9       -9.366620   1.000000
   10       -9.361189   1.000000
   11       -6.004094   1.000000
   12       -6.004094   1.000000
   13       -1.247871   1.000000
   14       -1.247871   1.000000
   15        2.908274   1.000000
   16        2.908274   1.000000
   17        3.131722   1.000000
   18        3.136130   1.000000
   19        5.333124  -0.000000
   20        5.333124  -0.000000
   21        8.715257   0.000000
 
 -0.2857143E+00  0.0000000E+00  0.0000000E+00  0.1166181E-01
    1      -10.288944   1.000000
    2      -10.288944   1.000000
    3      -10.273040   1.000000
    4      -10.263183   1.000000
    5       -9.495664   1.000000
    6       -9.495664   1.000000
    7       -9.422674   1.000000
    8       -9.422673   1.000000
    9       -9.382017   1.000000
   10       -9.369781   1.000000
   11       -6.579005   1.000000
   12       -6.579005   1.000000
   13        0.109489   1.000000
   14        0.109489   1.000000
   15        3.199749   1.000000
   16        3.199749   1.000000
   17        3.417468   1.000000
   18        3.428165   1.000000
   19        5.485163  -0.000000
   20        5.485163  -0.000000
   21        8.640675   0.000000
 
 -0.1428571E+00  0.0000000E+00  0.0000000E+00  0.1166181E-01
    1      -10.277650   1.000000
    2      -10.277650   1.000000
    3      -10.275477   1.000000
    4      -10.267520   1.000000
    5       -9.486877   1.000000
    6       -9.486876   1.000000
    7       -9.405949   1.000000
    8       -9.405948   1.000000
    9       -9.395155   1.000000
   10       -9.385312   1.000000
   11       -7.111543   1.000000
   12       -7.111543   1.000000
   13        2.097839   1.000000
   14        2.097839   1.000000
   15        3.655319   1.000000
   16        3.655319   1.000000
   17        3.867070   1.000000
   18        3.877042   1.000000
   19        5.424610  -0.000000
   20        5.424610  -0.000000
   21        8.093753   0.000000
 
  0.1428571E+00  0.1428571E+00  0.0000000E+00  0.1749271E-01
    1      -10.284449   1.000000
    2      -10.284447   1.000000
    3      -10.265546   1.000000
    4      -10.265544   1.000000
    5       -9.490312   1.000000
    6       -9.490312   1.000000
    7       -9.400206   1.000000
    8       -9.400203   1.000000
    9       -9.394095   1.000000
   10       -9.394092   1.000000
   11       -7.045472   1.000000
   12       -7.045472   1.000000
   13        2.081475   1.000000
   14        2.081475   1.000000
   15        3.282545   1.000000
   16        3.282546   1.000000
   17        3.407749   1.000000
   18        3.407750   1.000000
   19        6.161368   0.000000
   20        6.744985   0.000000
   21        7.118236   0.000000
 
  0.2857143E+00  0.1428571E+00  0.0000000E+00  0.3498542E-01
    1      -10.304470   1.000000
    2      -10.287449   1.000000
    3      -10.263747   1.000000
    4      -10.255610   1.000000
    5       -9.517561   1.000000
    6       -9.483562   1.000000
    7       -9.412224   1.000000
    8       -9.406724   1.000000
    9       -9.385828   1.000000
   10       -9.379283   1.000000
   11       -6.625502   1.000000
   12       -6.619104   1.000000
   13        0.589097   1.000000
   14        0.589355   1.000000
   15        2.751183   1.000000
   16        2.783131   1.000000
   17        2.917172   1.000000
   18        2.923024   1.000000
   19        6.499581   0.000000
   20        6.526902   0.000000
   21        7.435697   0.000000
 
  0.4285714E+00  0.1428571E+00  0.0000000E+00  0.3498542E-01
    1      -10.324680   1.000000
    2      -10.289725   1.000000
    3      -10.260441   1.000000
    4      -10.249596   1.000000
    5       -9.543596   1.000000
    6       -9.471359   1.000000
    7       -9.427372   1.000000
    8       -9.415224   1.000000
    9       -9.370429   1.000000
   10       -9.367262   1.000000
   11       -6.037762   1.000000
   12       -6.027957   1.000000
   13       -0.873620   1.000000
   14       -0.858358   1.000000
   15        2.219049   1.000000
   16        2.250232   1.000000
   17        2.660237   1.000000
   18        2.663633   1.000000
   19        6.339592   0.000000
   20        6.357994   0.000000
   21        8.249091   0.000000
 
 -0.4285714E+00  0.1428571E+00  0.0000000E+00  0.3498542E-01
    1      -10.330888   1.000000
    2      -10.291180   1.000000
    3      -10.257327   1.000000
    4      -10.248839   1.000000
    5       -9.552006   1.000000
    6       -9.462172   1.000000
    7       -9.437961   1.000000
    8       -9.417536   1.000000
    9       -9.365398   1.000000
   10       -9.363234   1.000000
   11       -5.799305   1.000000
   12       -5.789084   1.000000
   13       -1.345187   1.000000
   14       -1.322009   1.000000
   15        1.906927   1.000000
   16        1.928344   1.000000
   17        2.775055   1.000000
   18        2.782864   1.000000
   19        6.287627   0.000000
   20        6.292580   0.000000
   21        8.509545   0.000000
 
 -0.2857143E+00  0.1428571E+00  0.0000000E+00  0.3498542E-01
    1      -10.318549   1.000000
    2      -10.289822   1.000000
    3      -10.257409   1.000000
    4      -10.253752   1.000000
    5       -9.539693   1.000000
    6       -9.466870   1.000000
    7       -9.432430   1.000000
    8       -9.413495   1.000000
    9       -9.374983   1.000000
   10       -9.368567   1.000000
   11       -6.233843   1.000000
   12       -6.222241   1.000000
   13       -0.449035   1.000000
   14       -0.432628   1.000000
   15        1.988777   1.000000
   16        2.008001   1.000000
   17        3.185951   1.000000
   18        3.198389   1.000000
   19        6.364657   0.000000
   20        6.366811   0.000000
   21        8.779908   0.000000
 
 -0.1428571E+00  0.1428571E+00  0.0000000E+00  0.3498542E-01
    1      -10.295213   1.000000
    2      -10.285083   1.000000
    3      -10.264241   1.000000
    4      -10.261913   1.000000
    5       -9.511353   1.000000
    6       -9.477604   1.000000
    7       -9.417766   1.000000
    8       -9.407243   1.000000
    9       -9.388562   1.000000
   10       -9.379529   1.000000
   11       -6.802296   1.000000
   12       -6.794928   1.000000
   13        1.032109   1.000000
   14        1.033552   1.000000
   15        2.639164   1.000000
   16        2.668724   1.000000
   17        3.665645   1.000000
   18        3.680948   1.000000
   19        6.178343   0.000000
   20        6.291405   0.000000
   21        8.240550   0.000000
 
  0.2857143E+00  0.2857143E+00  0.0000000E+00  0.1749271E-01
    1      -10.308866   1.000000
    2      -10.308866   1.000000
    3      -10.250726   1.000000
    4      -10.250726   1.000000
    5       -9.511693   1.000000
    6       -9.511693   1.000000
    7       -9.393481   1.000000
    8       -9.393480   1.000000
    9       -9.385900   1.000000
   10       -9.385899   1.000000
   11       -6.338938   1.000000
   12       -6.338938   1.000000
   13        0.195821   1.000000
   14        0.195821   1.000000
   15        2.309943   1.000000
   16        2.309943   1.000000
   17        2.365236   1.000000
   18        2.365236   1.000000
   19        6.254202   0.000000
   20        6.254546   0.000000
   21        7.028892   0.000000
 
  0.4285714E+00  0.2857143E+00  0.0000000E+00  0.3498542E-01
    1      -10.336463   1.000000
    2      -10.303271   1.000000
    3      -10.248837   1.000000
    4      -10.239032   1.000000
    5       -9.552752   1.000000
    6       -9.488037   1.000000
    7       -9.399799   1.000000
    8       -9.395098   1.000000
    9       -9.379459   1.000000
   10       -9.369022   1.000000
   11       -5.853931   1.000000
   12       -5.845945   1.000000
   13       -0.744936   1.000000
   14       -0.728395   1.000000
   15        1.629869   1.000000
   16        1.658362   1.000000
   17        2.081599   1.000000
   18        2.084035   1.000000
   19        6.360613   0.000000
   20        6.396482   0.000000
   21        7.397287   0.000000
 
 -0.4285714E+00  0.2857143E+00  0.0000000E+00  0.3498542E-01
    1      -10.351267   1.000000
    2      -10.297188   1.000000
    3      -10.248233   1.000000
    4      -10.230320   1.000000
    5       -9.580088   1.000000
    6       -9.465995   1.000000
    7       -9.409669   1.000000
    8       -9.403589   1.000000
    9       -9.372427   1.000000
   10       -9.362839   1.000000
   11       -5.525485   1.000000
   12       -5.515466   1.000000
   13       -1.263107   1.000000
   14       -1.219055   1.000000
   15        0.934617   1.000000
   16        0.949772   1.000000
   17        2.199106   1.000000
   18        2.204812   1.000000
   19        6.526679   0.000000
   20        6.532041   0.000000
   21        8.822414   0.000000
 
 -0.2857143E+00  0.2857143E+00  0.0000000E+00  0.3498542E-01
    1      -10.344325   1.000000
    2      -10.293818   1.000000
    3      -10.250926   1.000000
    4      -10.233563   1.000000
    5       -9.575585   1.000000
    6       -9.453829   1.000000
    7       -9.429839   1.000000
    8       -9.406159   1.000000
    9       -9.369733   1.000000
   10       -9.366124   1.000000
   11       -5.745606   1.000000
   12       -5.731849   1.000000
   13       -0.970648   1.000000
   14       -0.925330   1.000000
   15        0.920257   1.000000
   16        0.927184   1.000000
   17        2.648711   1.000000
   18        2.658292   1.000000
   19        6.773827   0.000000
   20        6.786069   0.000000
   21        9.450163   0.000000
 
 -0.1428571E+00  0.2857143E+00  0.0000000E+00  0.3498542E-01
    1      -10.318549   1.000000
    2      -10.289822   1.000000
    3      -10.257409   1.000000
    4      -10.253752   1.000000
    5       -9.539693   1.000000
    6       -9.466870   1.000000
    7       -9.432430   1.000000
    8       -9.413495   1.000000
    9       -9.374983   1.000000
   10       -9.368567   1.000000
   11       -6.233843   1.000000
   12       -6.222241   1.000000
   13       -0.449035   1.000000
   14       -0.432628   1.000000
   15        1.988777   1.000000
   16        2.008001   1.000000
   17        3.185951   1.000000
   18        3.198388   1.000000
   19        6.364549   0.000000
   20        6.366917   0.000000
   21        8.917920   0.000000
 
  0.4285714E+00  0.4285714E+00  0.0000000E+00  0.1749271E-01
    1      -10.328950   1.000000
    2      -10.328950   1.000000
    3      -10.239634   1.000000
    4      -10.239633   1.000000
    5       -9.525823   1.000000
    6       -9.525823   1.000000
    7       -9.391533   1.000000
    8       -9.391533   1.000000
    9       -9.367487   1.000000
   10       -9.367487   1.000000
   11       -5.549740   1.000000
   12       -5.549740   1.000000
   13       -1.195800   1.000000
   14       -1.195800   1.000000
   15        1.731834   1.000000
   16        1.731834   1.000000
   17        1.747687   1.000000
   18        1.747687   1.000000
   19        5.838456   0.000000
   20        5.842474   0.000000
   21        6.565496   0.000000
 
 -0.4285714E+00  0.4285714E+00  0.0000000E+00  0.3498542E-01
    1      -10.350061   1.000000
    2      -10.310788   1.000000
    3      -10.242397   1.000000
    4      -10.231873   1.000000
    5       -9.565764   1.000000
    6       -9.490417   1.000000
    7       -9.396773   1.000000
    8       -9.383316   1.000000
    9       -9.380767   1.000000
   10       -9.359594   1.000000
   11       -5.387530   1.000000
   12       -5.382465   1.000000
   13       -1.390657   1.000000
   14       -1.361974   1.000000
   15        1.188644   1.000000
   16        1.209635   1.000000
   17        1.786981   1.000000
   18        1.789743   1.000000
   19        6.123844   0.000000
   20        6.155340   0.000000
   21        7.180924   0.000000
 
 -0.2857143E+00  0.4285714E+00  0.0000000E+00  0.3498542E-01
    1      -10.351267   1.000000
    2      -10.297188   1.000000
    3      -10.248233   1.000000
    4      -10.230320   1.000000
    5       -9.580088   1.000000
    6       -9.465995   1.000000
    7       -9.409669   1.000000
    8       -9.403589   1.000000
    9       -9.372427   1.000000
   10       -9.362839   1.000000
   11       -5.525485   1.000000
   12       -5.515466   1.000000
   13       -1.263107   1.000000
   14       -1.219055   1.000000
   15        0.934617   1.000000
   16        0.949772   1.000000
   17        2.199106   1.000000
   18        2.204812   1.000000
   19        6.526703   0.000000
   20        6.532039   0.000000
   21        9.141070   0.000000
 
 -0.1428571E+00  0.4285714E+00  0.0000000E+00  0.3498542E-01
    1      -10.330888   1.000000
    2      -10.291180   1.000000
    3      -10.257327   1.000000
    4      -10.248839   1.000000
    5       -9.552006   1.000000
    6       -9.462172   1.000000
    7       -9.437961   1.000000
    8       -9.417536   1.000000
    9       -9.365398   1.000000
   10       -9.363234   1.000000
   11       -5.799305   1.000000
   12       -5.789084   1.000000
   13       -1.345187   1.000000
   14       -1.322009   1.000000
   15        1.906927   1.000000
   16        1.928344   1.000000
   17        2.775055   1.000000
   18        2.782864   1.000000
   19        6.287574   0.000000
   20        6.292633   0.000000
   21        8.511285   0.000000
 
 -0.2857143E+00 -0.4285714E+00  0.0000000E+00  0.3498542E-01
    1      -10.336463   1.000000
    2      -10.303271   1.000000
    3      -10.248837   1.000000
    4      -10.239032   1.000000
    5       -9.552752   1.000000
    6       -9.488037   1.000000
    7       -9.399799   1.000000
    8       -9.395098   1.000000
    9       -9.379459   1.000000
   10       -9.369022   1.000000
   11       -5.853931   1.000000
   12       -5.845945   1.000000
   13       -0.744936   1.000000
   14       -0.728395   1.000000
   15        1.629869   1.000000
   16        1.658362   1.000000
   17        2.081599   1.000000
   18        2.084035   1.000000
   19        6.377072   0.000000
   20        6.383262   0.000000
   21        7.382494   0.000000
 
 -0.1428571E+00 -0.4285714E+00  0.0000000E+00  0.3498542E-01
    1      -10.324680   1.000000
    2      -10.289725   1.000000
    3      -10.260441   1.000000
    4      -10.249596   1.000000
    5       -9.543596   1.000000
    6       -9.471359   1.000000
    7       -9.427372   1.000000
    8       -9.415224   1.000000
    9       -9.370429   1.000000
   10       -9.367262   1.000000
   11       -6.037762   1.000000
   12       -6.027957   1.000000
   13       -0.873620   1.000000
   14       -0.858358   1.000000
   15        2.219049   1.000000
   16        2.250232   1.000000
   17        2.660238   1.000000
   18        2.663633   1.000000
   19        6.339631   0.000000
   20        6.357963   0.000000
   21        8.247926   0.000000
 
 -0.1428571E+00 -0.2857143E+00  0.0000000E+00  0.3498542E-01
    1      -10.304470   1.000000
    2      -10.287449   1.000000
    3      -10.263747   1.000000
    4      -10.255610   1.000000
    5       -9.517561   1.000000
    6       -9.483562   1.000000
    7       -9.412224   1.000000
    8       -9.406724   1.000000
    9       -9.385828   1.000000
   10       -9.379283   1.000000
   11       -6.625502   1.000000
   12       -6.619104   1.000000
   13        0.589097   1.000000
   14        0.589355   1.000000
   15        2.751182   1.000000
   16        2.783131   1.000000
   17        2.917172   1.000000
   18        2.923024   1.000000
   19        6.506862   0.000000
   20        6.705445   0.000000
   21        7.434590   0.000000
 
  0.4285714E+00  0.2857143E+00  0.1428571E+00  0.6997085E-01
    1      -10.327634   1.000000
    2      -10.292552   1.000000
    3      -10.254773   1.000000
    4      -10.244870   1.000000
    5       -9.549463   1.000000
    6       -9.472893   1.000000
    7       -9.415370   1.000000
    8       -9.404073   1.000000
    9       -9.376173   1.000000
   10       -9.374466   1.000000
   11       -6.164137   1.000000
   12       -6.152451   1.000000
   13       -0.286231   1.000000
   14       -0.268319   1.000000
   15        1.698936   1.000000
   16        1.716841   1.000000
   17        2.626813   1.000000
   18        2.656961   1.000000
   19        7.226592   0.000000
   20        7.355734   0.000000
   21        7.501498   0.000000
 
 -0.4285714E+00  0.2857143E+00  0.1428571E+00  0.6997085E-01
    1      -10.346537   1.000000
    2      -10.293172   1.000000
    3      -10.249969   1.000000
    4      -10.235234   1.000000
    5       -9.576418   1.000000
    6       -9.456408   1.000000
    7       -9.424121   1.000000
    8       -9.405533   1.000000
    9       -9.369370   1.000000
   10       -9.366236   1.000000
   11       -5.678350   1.000000
   12       -5.666409   1.000000
   13       -1.125045   1.000000
   14       -1.086840   1.000000
   15        1.196740   1.000000
   16        1.211635   1.000000
   17        2.227030   1.000000
   18        2.256417   1.000000
   19        7.261700   0.000000
   20        7.300076   0.000000
   21        8.262642   0.000000
 
 -0.2857143E+00  0.2857143E+00  0.1428571E+00  0.6997085E-01
    1      -10.346537   1.000000
    2      -10.293172   1.000000
    3      -10.249970   1.000000
    4      -10.235233   1.000000
    5       -9.576417   1.000000
    6       -9.456407   1.000000
    7       -9.424124   1.000000
    8       -9.405534   1.000000
    9       -9.369370   1.000000
   10       -9.366233   1.000000
   11       -5.678350   1.000000
   12       -5.666409   1.000000
   13       -1.125045   1.000000
   14       -1.086840   1.000000
   15        1.196739   1.000000
   16        1.211634   1.000000
   17        2.227031   1.000000
   18        2.256418   1.000000
   19        7.263923   0.000000
   20        7.287394   0.000000
   21        8.257298   0.000000
 
 -0.4285714E+00  0.4285714E+00  0.1428571E+00  0.6997085E-01
    1      -10.352839   1.000000
    2      -10.301432   1.000000
    3      -10.243293   1.000000
    4      -10.232298   1.000000
    5       -9.577789   1.000000
    6       -9.473578   1.000000
    7       -9.399757   1.000000
    8       -9.394084   1.000000
    9       -9.378387   1.000000
   10       -9.362450   1.000000
   11       -5.489285   1.000000
   12       -5.481330   1.000000
   13       -1.211990   1.000000
   14       -1.176683   1.000000
   15        1.256070   1.000000
   16        1.268838   1.000000
   17        1.577486   1.000000
   18        1.602146   1.000000
   19        7.004144   0.000000
   20        7.121302   0.000000
   21        7.446189   0.000000
 
 -0.2857143E+00  0.4285714E+00  0.1428571E+00  0.6997085E-01
    1      -10.359246   1.000000
    2      -10.295535   1.000000
    3      -10.243047   1.000000
    4      -10.227931   1.000000
    5       -9.593954   1.000000
    6       -9.453483   1.000000
    7       -9.412516   1.000000
    8       -9.399513   1.000000
    9       -9.372009   1.000000
   10       -9.364170   1.000000
   11       -5.399772   1.000000
   12       -5.390973   1.000000
   13       -1.283554   1.000000
   14       -1.230385   1.000000
   15        0.831077   1.000000
   16        0.840550   1.000000
   17        1.654258   1.000000
   18        1.680937   1.000000
   19        7.434348   0.000000
   20        7.439750   0.000000
   21        8.843288   0.000000
