       N       E                     dE             d eps       ncg     rms          ort
DAV:   1     0.187524776251E+03    0.18752E+03   -0.66078E+03   630   0.161E+03
DAV:   2     0.515159001071E+02   -0.13601E+03   -0.13292E+03   630   0.457E+02
DAV:   3     0.728104934617E+01   -0.44235E+02   -0.42870E+02   630   0.276E+02
DAV:   4    -0.892416914515E+01   -0.16205E+02   -0.15946E+02   630   0.157E+02
DAV:   5    -0.113946998027E+02   -0.24705E+01   -0.24427E+01   630   0.532E+01
SDA:   6    -0.102909238053E+02    0.11038E+01   -0.88622E+00   630   0.222E+01 0.000E+00
DMP:   7    -0.109600443457E+02   -0.66912E+00   -0.52237E+00   630   0.875E+00 0.113E+01
DMP:   8    -0.113226183610E+02   -0.36257E+00   -0.20186E+00   630   0.313E+00 0.502E+00
DMP:   9    -0.114681560191E+02   -0.14554E+00   -0.87271E-01   630   0.137E+00 0.214E+00
DMP:  10    -0.115344039804E+02   -0.66248E-01   -0.43586E-01   630   0.687E-01 0.105E+00
DMP:  11    -0.115678199276E+02   -0.33416E-01   -0.19075E-01   630   0.272E-01 0.536E-01
DMP:  12    -0.115825561452E+02   -0.14736E-01   -0.81760E-02   630   0.115E-01 0.235E-01
DMP:  13    -0.115890415715E+02   -0.64854E-02   -0.38562E-02   630   0.552E-02 0.108E-01
DMP:  14    -0.115921894152E+02   -0.31478E-02   -0.19381E-02   630   0.271E-02 0.559E-02
DMP:  15    -0.115938144705E+02   -0.16251E-02   -0.99821E-03   630   0.136E-02 0.297E-02
DMP:  16    -0.115948695668E+02   -0.10551E-02   -0.77382E-03   630   0.946E-03 0.259E-02
DMP:  17    -0.115955211861E+02   -0.65162E-03   -0.33788E-03   630   0.403E-03 0.116E-02
DMP:  18    -0.115957883925E+02   -0.26721E-03   -0.15237E-03   630   0.180E-03 0.527E-03
DMP:  19    -0.115959429929E+02   -0.15460E-03   -0.11454E-03   630   0.130E-03 0.410E-03
DMP:  20    -0.115960752598E+02   -0.13227E-03   -0.99339E-04   630   0.108E-03 0.367E-03
DMP:  21    -0.115961732723E+02   -0.98012E-04   -0.57693E-04   630   0.609E-04 0.218E-03
DMP:  22    -0.115962178890E+02   -0.44617E-04   -0.19657E-04   630   0.204E-04 0.753E-04
DMP:  23    -0.115962337795E+02   -0.15890E-04   -0.75106E-05   630   0.760E-05 0.293E-04
DMP:  24    -0.115962395498E+02   -0.57703E-05   -0.26232E-05   630   0.261E-05 0.103E-04
   1 F= -.11596240E+02 E0= -.11596244E+02  d E =0.128830E-04  mag=     0.0000     0.0000     0.0000
