 vasp.5.4.4.18Apr17-6-g9f103f2a35 (build Sep 01 2023 15:53:54) complex          
  
 executed on             LinuxIFC date 2024.08.12  11:34:20
 running on   54 total cores
 distrk:  each k-point on    9 cores,    6 groups
 distr:  one band on NCORES_PER_BAND=   3 cores,    3 groups


--------------------------------------------------------------------------------------------------------


 INCAR:
 POTCAR:    PAW_PBE In_d 06Sep2000                
 POTCAR:    PAW_PBE As 22Sep2009                  

 ----------------------------------------------------------------------------- 
|                                                                             |
|           W    W    AA    RRRRR   N    N  II  N    N   GGGG   !!!           |
|           W    W   A  A   R    R  NN   N  II  NN   N  G    G  !!!           |
|           W    W  A    A  R    R  N N  N  II  N N  N  G       !!!           |
|           W WW W  AAAAAA  RRRRR   N  N N  II  N  N N  G  GGG   !            |
|           WW  WW  A    A  R   R   N   NN  II  N   NN  G    G                |
|           W    W  A    A  R    R  N    N  II  N    N   GGGG   !!!           |
|                                                                             |
|      For optimal performance we recommend to set                            |
|        NCORE= 4 - approx SQRT( number of cores)                             |
|      NCORE specifies how many cores store one orbital (NPAR=cpu/NCORE).     |
|      This setting can  greatly improve the performance of VASP for DFT.     |
|      The default,   NCORE=1            might be grossly inefficient         |
|      on modern multi-core architectures or massively parallel machines.     |
|      Do your own testing !!!!                                               |
|      Unfortunately you need to use the default for GW and RPA calculations. |
|      (for HF NCORE is supported but not extensively tested yet)             |
|                                                                             |
 ----------------------------------------------------------------------------- 


 ----------------------------------------------------------------------------- 
|                                                                             |
|           W    W    AA    RRRRR   N    N  II  N    N   GGGG   !!!           |
|           W    W   A  A   R    R  NN   N  II  NN   N  G    G  !!!           |
|           W    W  A    A  R    R  N N  N  II  N N  N  G       !!!           |
|           W WW W  AAAAAA  RRRRR   N  N N  II  N  N N  G  GGG   !            |
|           WW  WW  A    A  R   R   N   NN  II  N   NN  G    G                |
|           W    W  A    A  R    R  N    N  II  N    N   GGGG   !!!           |
|                                                                             |
|      You have enabled k-point parallelism (KPAR>1).                         |
|      This developmental code was originally  written by Paul Kent at ORNL,  |
|      and carefully double checked in Vienna.                                |
|      GW as well as linear response parallelism added by Martijn Marsman     |
|      and Georg Kresse.                                                      |
|      Carefully verify results versus KPAR=1.                                |
|      Report problems to Paul Kent and Vienna.                               |
|                                                                             |
 ----------------------------------------------------------------------------- 

 POTCAR:    PAW_PBE In_d 06Sep2000                
   VRHFIN =In: s2p1                                                             
   LEXCH  = PE                                                                  
   EATOM  =  1576.8302 eV,  115.8937 Ry                                         
                                                                                
   TITEL  = PAW_PBE In_d 06Sep2000                                              
   LULTRA =        F    use ultrasoft PP ?                                      
   IUNSCR =        1    unscreen: 0-lin 1-nonlin 2-no                           
   RPACOR =    2.200    partial core radius                                     
   POMASS =  114.820; ZVAL   =   13.000    mass and valenz                      
   RCORE  =    2.500    outmost cutoff radius                                   
   RWIGS  =    3.170; RWIGS  =    1.677    wigner-seitz radius (au A)           
   ENMAX  =  239.211; ENMIN  =  179.409 eV                                      
   ICORE  =        3    local potential                                         
   LCOR   =        T    correct aug charges                                     
   LPAW   =        T    paw PP                                                  
   EAUG   =  449.704                                                            
   DEXC   =    0.000                                                            
   RMAX   =    2.552    core radius for proj-oper                               
   RAUG   =    1.300    factor for augmentation sphere                          
   RDEP   =    2.630    radius for radial grids                                 
   RDEPT  =    2.033    core radius for aug-charge                              
                                                                                
   Atomic configuration                                                         
   12 entries                                                                   
     n  l   j            E        occ.                                          
     1  0  0.50    -27747.9169   2.0000                                         
     2  0  0.50     -4154.4438   2.0000                                         
     2  1  1.50     -3728.4305   6.0000                                         
     3  0  0.50      -788.3680   2.0000                                         
     3  1  1.50      -648.9215   6.0000                                         
     3  2  2.50      -432.5893  10.0000                                         
     4  0  0.50      -119.6363   2.0000                                         
     4  1  1.50       -78.1086   6.0000                                         
     4  2  2.50       -18.6227  10.0000                                         
     5  0  0.50        -8.2107   2.0000                                         
     5  1  0.50        -2.5185   1.0000                                         
     4  3  2.50        -2.7212   0.0000                                         
   Description                                                                  
     l       E           TYP  RCUT    TYP  RCUT                                 
     2    -18.6226981     23  2.500                                             
     2     -1.3605826     23  2.500                                             
     0     -8.2107305     23  2.500                                             
     0     -6.1485975     23  2.500                                             
     1     -2.5184867     23  2.500                                             
     1      3.2427302     23  2.500                                             
     3     -1.3605826      7  2.500                                             
  local pseudopotential read in
  partial core-charges read in
  partial kinetic energy density read in
  atomic valenz-charges read in
  non local Contribution for L=           2  read in
    real space projection operators read in
  non local Contribution for L=           2  read in
    real space projection operators read in
  non local Contribution for L=           0  read in
    real space projection operators read in
  non local Contribution for L=           0  read in
    real space projection operators read in
  non local Contribution for L=           1  read in
    real space projection operators read in
  non local Contribution for L=           1  read in
    real space projection operators read in
    PAW grid and wavefunctions read in
 
   number of l-projection  operators is LMAX  =           6
   number of lm-projection operators is LMMAX =          18
 
 POTCAR:    PAW_PBE As 22Sep2009                  
   VRHFIN =As: s2p3                                                             
   LEXCH  = PE                                                                  
   EATOM  =   170.1867 eV,   12.5084 Ry                                         
                                                                                
   TITEL  = PAW_PBE As 22Sep2009                                                
   LULTRA =        F    use ultrasoft PP ?                                      
   IUNSCR =        1    unscreen: 0-lin 1-nonlin 2-no                           
   RPACOR =    1.900    partial core radius                                     
   POMASS =   74.922; ZVAL   =    5.000    mass and valenz                      
   RCORE  =    2.100    outmost cutoff radius                                   
   RWIGS  =    2.300; RWIGS  =    1.217    wigner-seitz radius (au A)           
   ENMAX  =  208.702; ENMIN  =  156.526 eV                                      
   ICORE  =        3    local potential                                         
   LCOR   =        T    correct aug charges                                     
   LPAW   =        T    paw PP                                                  
   EAUG   =  462.758                                                            
   DEXC   =    0.000                                                            
   RMAX   =    2.144    core radius for proj-oper                               
   RAUG   =    1.300    factor for augmentation sphere                          
   RDEP   =    2.140    radius for radial grids                                 
   RDEPT  =    1.956    core radius for aug-charge                              
                                                                                
   Atomic configuration                                                         
   10 entries                                                                   
     n  l   j            E        occ.                                          
     1  0  0.50    -11718.0418   2.0000                                         
     2  0  0.50     -1486.5454   2.0000                                         
     2  1  1.50     -1303.3889   6.0000                                         
     3  0  0.50      -190.2849   2.0000                                         
     3  1  1.50      -133.6555   6.0000                                         
     3  2  2.50       -40.6443  10.0000                                         
     4  0  0.50       -14.4936   2.0000                                         
     4  1  0.50        -5.1947   3.0000                                         
     4  2  1.50        -5.4423   0.0000                                         
     4  3  2.50        -5.4423   0.0000                                         
   Description                                                                  
     l       E           TYP  RCUT    TYP  RCUT                                 
     0    -14.4935570     23  2.100                                             
     0    -11.9212055     23  2.100                                             
     1     -5.1947127     23  2.100                                             
     1     27.2116520     23  2.100                                             
     2     -5.4423304     23  2.100                                             
     3     -1.3605826      7  2.100                                             
  local pseudopotential read in
  partial core-charges read in
  partial kinetic energy density read in
  atomic valenz-charges read in
  non local Contribution for L=           0  read in
    real space projection operators read in
  non local Contribution for L=           0  read in
    real space projection operators read in
  non local Contribution for L=           1  read in
    real space projection operators read in
  non local Contribution for L=           1  read in
    real space projection operators read in
  non local Contribution for L=           2  read in
    real space projection operators read in
    PAW grid and wavefunctions read in
 
   number of l-projection  operators is LMAX  =           5
   number of lm-projection operators is LMMAX =          13
 
  PAW_PBE In_d 06Sep2000                :
 energy of atom  1       EATOM=-1576.8302
 kinetic energy error for atom=    0.0052 (will be added to EATOM!!)
  PAW_PBE As 22Sep2009                  :
 energy of atom  2       EATOM= -170.1867
 kinetic energy error for atom=    0.0013 (will be added to EATOM!!)
 
 
 POSCAR: In As                                   
  positions in direct lattice
  No initial velocities read in
 exchange correlation table for  LEXCH =        8
   RHO(1)=    0.500       N(1)  =     2000
   RHO(2)=  100.500       N(2)  =     4000
 


--------------------------------------------------------------------------------------------------------


 ion  position               nearest neighbor table
   1  0.000  0.000  0.000-   2 2.62   2 2.62   2 2.62   2 2.62
   2  0.750  0.750  0.750-   1 2.62   1 2.62   1 2.62   1 2.62
 
  LATTYP: Found a face centered cubic cell.
 ALAT       =     6.0584000000
  
  Lattice vectors:
  
 A1 = (   0.0000000000,   3.0292000000,   3.0292000000)
 A2 = (   3.0292000000,   0.0000000000,   3.0292000000)
 A3 = (   3.0292000000,   3.0292000000,   0.0000000000)


Analysis of symmetry for initial positions (statically):
=====================================================================
 Subroutine PRICEL returns:
 Original cell was already a primitive cell.
 

 Routine SETGRP: Setting up the symmetry group for a 
 face centered cubic supercell.


 Subroutine GETGRP returns: Found 24 space group operations
 (whereof 24 operations were pure point group operations)
 out of a pool of 48 trial point group operations.


The static configuration has the point symmetry T_d .


Analysis of symmetry for dynamics (positions and initial velocities):
=====================================================================
 Subroutine PRICEL returns:
 Original cell was already a primitive cell.
 

 Routine SETGRP: Setting up the symmetry group for a 
 face centered cubic supercell.


 Subroutine GETGRP returns: Found 24 space group operations
 (whereof 24 operations were pure point group operations)
 out of a pool of 48 trial point group operations.


The dynamic configuration has the point symmetry T_d .


Analysis of structural, dynamic, and magnetic symmetry:
=====================================================================
 Subroutine PRICEL returns:
 Original cell was already a primitive cell.
 

 Routine SETGRP: Setting up the symmetry group for a 
 face centered cubic supercell.


 Subroutine GETGRP returns: Found 24 space group operations
 (whereof 24 operations were pure point group operations)
 out of a pool of 48 trial point group operations.


The (compounded) configuration has the point symmetry T_d .


 Subroutine INISYM returns: Found 24 space group operations
 (whereof 24 operations are pure point group operations),
 and found     1 'primitive' translations

 
 
 KPOINTS: KPOINTS created by Atomic Simulation Env

Automatic generation of k-mesh.
Space group operators:
 irot       det(A)        alpha          n_x          n_y          n_z        tau_x        tau_y        tau_z
    1     1.000000     0.000000     1.000000     0.000000     0.000000     0.000000     0.000000     0.000000
    2     1.000000   120.000000    -0.577350    -0.577350    -0.577350     0.000000     0.000000     0.000000
    3     1.000000   120.000000     0.577350     0.577350     0.577350     0.000000     0.000000     0.000000
    4    -1.000000    90.000000     0.000000     0.000000    -1.000000     0.000000     0.000000     0.000000
    5    -1.000000   180.000000     0.000000     0.707107     0.707107     0.000000     0.000000     0.000000
    6    -1.000000    90.000000     0.000000     1.000000     0.000000     0.000000     0.000000     0.000000
    7     1.000000   180.000000     0.000000     0.000000     1.000000     0.000000     0.000000     0.000000
    8     1.000000   120.000000    -0.577350     0.577350     0.577350     0.000000     0.000000     0.000000
    9     1.000000   120.000000    -0.577350     0.577350    -0.577350     0.000000     0.000000     0.000000
   10    -1.000000    90.000000     0.000000     0.000000     1.000000     0.000000     0.000000     0.000000
   11    -1.000000    90.000000    -1.000000     0.000000     0.000000     0.000000     0.000000     0.000000
   12    -1.000000   180.000000     0.707107     0.000000     0.707107     0.000000     0.000000     0.000000
   13     1.000000   120.000000     0.577350    -0.577350     0.577350     0.000000     0.000000     0.000000
   14     1.000000   120.000000    -0.577350    -0.577350     0.577350     0.000000     0.000000     0.000000
   15     1.000000   180.000000     1.000000     0.000000     0.000000     0.000000     0.000000     0.000000
   16    -1.000000    90.000000     0.000000    -1.000000     0.000000     0.000000     0.000000     0.000000
   17    -1.000000   180.000000     0.707107     0.707107     0.000000     0.000000     0.000000     0.000000
   18    -1.000000    90.000000     1.000000     0.000000     0.000000     0.000000     0.000000     0.000000
   19     1.000000   120.000000     0.577350    -0.577350    -0.577350     0.000000     0.000000     0.000000
   20     1.000000   180.000000     0.000000     1.000000     0.000000     0.000000     0.000000     0.000000
   21     1.000000   120.000000     0.577350     0.577350    -0.577350     0.000000     0.000000     0.000000
   22    -1.000000   180.000000     0.000000    -0.707107     0.707107     0.000000     0.000000     0.000000
   23    -1.000000   180.000000     0.707107    -0.707107     0.000000     0.000000     0.000000     0.000000
   24    -1.000000   180.000000     0.707107     0.000000    -0.707107     0.000000     0.000000     0.000000
 
 Subroutine IBZKPT returns following result:
 ===========================================
 
 Found     30 irreducible k-points:
 
 Following reciprocal coordinates:
            Coordinates               Weight
  0.000000  0.000000  0.000000      1.000000
  0.142857  0.000000  0.000000      4.000000
  0.285714  0.000000  0.000000      4.000000
  0.428571  0.000000  0.000000      4.000000
 -0.428571  0.000000  0.000000      4.000000
 -0.285714  0.000000  0.000000      4.000000
 -0.142857  0.000000  0.000000      4.000000
  0.142857  0.142857  0.000000      6.000000
  0.285714  0.142857  0.000000     12.000000
  0.428571  0.142857  0.000000     12.000000
 -0.428571  0.142857  0.000000     12.000000
 -0.285714  0.142857  0.000000     12.000000
 -0.142857  0.142857  0.000000     12.000000
  0.285714  0.285714  0.000000      6.000000
  0.428571  0.285714  0.000000     12.000000
 -0.428571  0.285714  0.000000     12.000000
 -0.285714  0.285714  0.000000     12.000000
 -0.142857  0.285714  0.000000     12.000000
  0.428571  0.428571  0.000000      6.000000
 -0.428571  0.428571  0.000000     12.000000
 -0.285714  0.428571  0.000000     12.000000
 -0.142857  0.428571  0.000000     12.000000
 -0.285714 -0.428571  0.000000     12.000000
 -0.142857 -0.428571  0.000000     12.000000
 -0.142857 -0.285714  0.000000     12.000000
  0.428571  0.285714  0.142857     24.000000
 -0.428571  0.285714  0.142857     24.000000
 -0.285714  0.285714  0.142857     24.000000
 -0.428571  0.428571  0.142857     24.000000
 -0.285714  0.428571  0.142857     24.000000
 
 Following cartesian coordinates:
            Coordinates               Weight
  0.000000  0.000000  0.000000      1.000000
 -0.023580  0.023580  0.023580      4.000000
 -0.047160  0.047160  0.047160      4.000000
 -0.070740  0.070740  0.070740      4.000000
  0.070740 -0.070740 -0.070740      4.000000
  0.047160 -0.047160 -0.047160      4.000000
  0.023580 -0.023580 -0.023580      4.000000
  0.000000  0.000000  0.047160      6.000000
 -0.023580  0.023580  0.070740     12.000000
 -0.047160  0.047160  0.094320     12.000000
  0.094320 -0.094320 -0.047160     12.000000
  0.070740 -0.070740 -0.023580     12.000000
  0.047160 -0.047160  0.000000     12.000000
  0.000000  0.000000  0.094320      6.000000
 -0.023580  0.023580  0.117900     12.000000
  0.117900 -0.117900 -0.023580     12.000000
  0.094320 -0.094320  0.000000     12.000000
  0.070740 -0.070740  0.023580     12.000000
  0.000000  0.000000  0.141480      6.000000
  0.141480 -0.141480  0.000000     12.000000
  0.117900 -0.117900  0.023580     12.000000
  0.094320 -0.094320  0.047160     12.000000
 -0.023580  0.023580 -0.117900     12.000000
 -0.047160  0.047160 -0.094320     12.000000
 -0.023580  0.023580 -0.070740     12.000000
 -0.000000  0.047160  0.094320     24.000000
  0.141480 -0.094320 -0.047160     24.000000
  0.117900 -0.070740 -0.023580     24.000000
  0.165060 -0.117900 -0.023580     24.000000
  0.141480 -0.094320 -0.000000     24.000000
 


--------------------------------------------------------------------------------------------------------




 Dimension of arrays:
   k-points           NKPTS =     30   k-points in BZ     NKDIM =     30   number of bands    NBANDS=     21
   number of dos      NEDOS =    301   number of ions     NIONS =      2
   non local maximal  LDIM  =      6   non local SUM 2l+1 LMDIM =     18
   total plane-waves  NPLWV =  13824
   max r-space proj   IRMAX =      1   max aug-charges    IRDMAX=  10939
   dimension x,y,z NGX =    24 NGY =   24 NGZ =   24
   dimension x,y,z NGXF=    48 NGYF=   48 NGZF=   48
   support grid    NGXF=    48 NGYF=   48 NGZF=   48
   ions per type =               1   1
   NGX,Y,Z   is equivalent  to a cutoff of   9.31,  9.31,  9.31 a.u.
   NGXF,Y,Z  is equivalent  to a cutoff of  18.63, 18.63, 18.63 a.u.

 SYSTEM =  unknown system                          
 POSCAR =  In As                                   

 Startparameter for this run:
   NWRITE =      2    write-flag & timer
   PREC   = n         normal or accurate (medium, high low for compatibility)
   ISTART =      0    job   : 0-new  1-cont  2-samecut
   ICHARG =      2    charge: 1-file 2-atom 10-const
   ISPIN  =      1    spin polarized calculation?
   LNONCOLLINEAR =      T non collinear calculations
   LSORBIT =      T    spin-orbit coupling
   INIWAV =      1    electr: 0-lowe 1-rand  2-diag
   LASPH  =      F    aspherical Exc in radial PAW
   METAGGA=      F    non-selfconsistent MetaGGA calc.

 Electronic Relaxation 1
   ENCUT  =  400.0 eV  29.40 Ry    5.42 a.u.   6.99  6.99  6.99*2*pi/ulx,y,z
   ENINI  =  400.0     initial cutoff
   ENAUG  =  462.8 eV  augmentation charge cutoff
   NELM   =     60;   NELMIN=  2; NELMDL= -5     # of ELM steps 
   EDIFF  = 0.1E-04   stopping-criterion for ELM
   LREAL  =      F    real-space projection
   NLSPLINE    = F    spline interpolate recip. space projectors
   LCOMPAT=      F    compatible to vasp.4.4
   GGA_COMPAT  = T    GGA compatible to vasp.4.4-vasp.4.6
   LMAXPAW     = -100 max onsite density
   LMAXMIX     =    4 max onsite mixed and CHGCAR
   VOSKOWN=      0    Vosko Wilk Nusair interpolation
   ROPT   =    0.00000   0.00000
 Ionic relaxation
   EDIFFG = 0.1E-03   stopping-criterion for IOM
   NSW    =      0    number of steps for IOM
   NBLOCK =      1;   KBLOCK =      1    inner block; outer block 
   IBRION =     -1    ionic relax: 0-MD 1-quasi-New 2-CG
   NFREE  =      0    steps in history (QN), initial steepest desc. (CG)
   ISIF   =      2    stress and relaxation
   IWAVPR =     10    prediction:  0-non 1-charg 2-wave 3-comb
   ISYM   =      2    0-nonsym 1-usesym 2-fastsym
   LCORR  =      T    Harris-Foulkes like correction to forces

   POTIM  = 0.5000    time-step for ionic-motion
   TEIN   =    0.0    initial temperature
   TEBEG  =    0.0;   TEEND  =   0.0 temperature during run
   SMASS  =  -3.00    Nose mass-parameter (am)
   estimated Nose-frequenzy (Omega)   =  0.10E-29 period in steps =****** mass=  -0.419E-27a.u.
   SCALEE = 1.0000    scale energy and forces
   NPACO  =    256;   APACO  = 16.0  distance and # of slots for P.C.
   PSTRESS=    0.0 pullay stress

  Mass of Ions in am
   POMASS = 114.82 74.92
  Ionic Valenz
   ZVAL   =  13.00  5.00
  Atomic Wigner-Seitz radii
   RWIGS  =  -1.00 -1.00
  virtual crystal weights 
   VCA    =   1.00  1.00
   NELECT =      18.0000    total number of electrons
   NUPDOWN=      -1.0000    fix difference up-down

 DOS related values:
   EMIN   =  10.00;   EMAX   =-10.00  energy-range for DOS
   EFERMI =   0.00
   ISMEAR =     1;   SIGMA  =   0.05  broadening in eV -4-tet -1-fermi 0-gaus

 Electronic relaxation 2 (details)
   IALGO  =     53    algorithm
   LDIAG  =      T    sub-space diagonalisation (order eigenvalues)
   LSUBROT=      F    optimize rotation matrix (better conditioning)
   TURBO    =      0    0=normal 1=particle mesh
   IRESTART =      0    0=no restart 2=restart with 2 vectors
   NREBOOT  =      0    no. of reboots
   NMIN     =      0    reboot dimension
   EREF     =   0.00    reference energy to select bands
   IMIX   =      4    mixing-type and parameters
     AMIX     =   0.40;   BMIX     =  3.00
     AMIX_MAG =   1.60;   BMIX_MAG =  3.00
     AMIN     =   0.01
     WC   =   100.;   INIMIX=   1;  MIXPRE=   1;  MAXMIX= -45

 Intra band minimization:
   WEIMIN = 0.0000     energy-eigenvalue tresh-hold
   EBREAK =  0.12E-06  absolut break condition
   DEPER  =   0.30     relativ break condition  

   TIME   =   0.40     timestep for ELM

  volume/ion in A,a.u.               =      27.80       187.58
  Fermi-wavevector in a.u.,A,eV,Ry     =   1.124159  2.124352 17.194136  1.263733
  Thomas-Fermi vector in A             =   2.260829
 
 Write flags
   LWAVE        =      T    write WAVECAR
   LDOWNSAMPLE  =      F    k-point downsampling of WAVECAR
   LCHARG       =      T    write CHGCAR
   LVTOT        =      F    write LOCPOT, total local potential
   LVHAR        =      F    write LOCPOT, Hartree potential only
   LELF         =      F    write electronic localiz. function (ELF)
   LORBIT       =     11    0 simple, 1 ext, 2 COOP (PROOUT), +10 PAW based schemes


 Dipole corrections
   LMONO  =      F    monopole corrections only (constant potential shift)
   LDIPOL =      F    correct potential (dipole corrections)
   IDIPOL =      0    1-x, 2-y, 3-z, 4-all directions 
   EPSILON=  1.0000000 bulk dielectric constant

 LDA+U is selected, type is set to LDAUTYPE =  2
   angular momentum for each species LDAUL =     1    1
   U (eV)           for each species LDAUU =  -4.2 -3.6
   J (eV)           for each species LDAUJ =   0.0  0.0
 Exchange correlation treatment:
   GGA     =    PE    GGA type
   LEXCH   =     8    internal setting for exchange type
   VOSKOWN=      0    Vosko Wilk Nusair interpolation
   LHFCALC =     F    Hartree Fock is set to
   LHFONE  =     F    Hartree Fock one center treatment
   AEXX    =    0.0000 exact exchange contribution

 Linear response parameters
   LEPSILON=     F    determine dielectric tensor
   LRPA    =     F    only Hartree local field effects (RPA)
   LNABLA  =     F    use nabla operator in PAW spheres
   LVEL    =     F    velocity operator in full k-point grid
   LINTERFAST=   F  fast interpolation
   KINTER  =     0    interpolate to denser k-point grid
   CSHIFT  =0.1000    complex shift for real part using Kramers Kronig
   OMEGAMAX=  -1.0    maximum frequency
   DEG_THRESHOLD= 0.2000000E-02 threshold for treating states as degnerate
   RTIME   =   -0.100 relaxation time in fs
  (WPLASMAI=    0.000 imaginary part of plasma frequency in eV, 0.658/RTIME)
   DFIELD  = 0.0000000 0.0000000 0.0000000 field for delta impulse in time
 
 Orbital magnetization related:
   ORBITALMAG=     F  switch on orbital magnetization
   LCHIMAG   =     F  perturbation theory with respect to B field
   DQ        =  0.001000  dq finite difference perturbation B field
   LLRAUG    =     F  two centre corrections for induced B field



--------------------------------------------------------------------------------------------------------


 Static calculation
 charge density and potential will be updated during run
 non collinear spin polarized calculation
 Conjugate gradient for all bands (Freysoldt, et al. PRB 79, 241103 (2009))
 perform sub-space diagonalisation
    before iterative eigenvector-optimisation
 modified Broyden-mixing scheme, WC =      100.0
 initial mixing is a Kerker type mixing with AMIX =  0.4000 and BMIX =      3.0000
 Hartree-type preconditioning will be used
 using additional bands           12
 reciprocal scheme for non local part
 use partial core corrections
 no Harris-corrections to forces 
 use gradient corrections 
 use of overlap-Matrix (Vanderbilt PP)
 Methfessel and Paxton  Order N= 1 SIGMA  =   0.05


--------------------------------------------------------------------------------------------------------


  energy-cutoff  :      400.00
  volume of cell :       55.59
      direct lattice vectors                 reciprocal lattice vectors
     0.000000000  3.029200000  3.029200000    -0.165060082  0.165060082  0.165060082
     3.029200000  0.000000000  3.029200000     0.165060082 -0.165060082  0.165060082
     3.029200000  3.029200000  0.000000000     0.165060082  0.165060082 -0.165060082

  length of vectors
     4.283935723  4.283935723  4.283935723     0.285892448  0.285892448  0.285892448


 
 k-points in units of 2pi/SCALE and weight: KPOINTS created by Atomic Simulation Env
   0.00000000  0.00000000  0.00000000       0.003
  -0.02358001  0.02358001  0.02358001       0.012
  -0.04716002  0.04716002  0.04716002       0.012
  -0.07074004  0.07074004  0.07074004       0.012
   0.07074004 -0.07074004 -0.07074004       0.012
   0.04716002 -0.04716002 -0.04716002       0.012
   0.02358001 -0.02358001 -0.02358001       0.012
   0.00000000  0.00000000  0.04716002       0.017
  -0.02358001  0.02358001  0.07074004       0.035
  -0.04716002  0.04716002  0.09432005       0.035
   0.09432005 -0.09432005 -0.04716002       0.035
   0.07074004 -0.07074004 -0.02358001       0.035
   0.04716002 -0.04716002  0.00000000       0.035
   0.00000000  0.00000000  0.09432005       0.017
  -0.02358001  0.02358001  0.11790006       0.035
   0.11790006 -0.11790006 -0.02358001       0.035
   0.09432005 -0.09432005  0.00000000       0.035
   0.07074004 -0.07074004  0.02358001       0.035
   0.00000000  0.00000000  0.14148007       0.017
   0.14148007 -0.14148007  0.00000000       0.035
   0.11790006 -0.11790006  0.02358001       0.035
   0.09432005 -0.09432005  0.04716002       0.035
  -0.02358001  0.02358001 -0.11790006       0.035
  -0.04716002  0.04716002 -0.09432005       0.035
  -0.02358001  0.02358001 -0.07074004       0.035
  -0.00000000  0.04716002  0.09432005       0.070
   0.14148007 -0.09432005 -0.04716002       0.070
   0.11790006 -0.07074004 -0.02358001       0.070
   0.16506008 -0.11790006 -0.02358001       0.070
   0.14148007 -0.09432005 -0.00000000       0.070
 
 k-points in reciprocal lattice and weights: KPOINTS created by Atomic Simulation Env
   0.00000000  0.00000000  0.00000000       0.003
   0.14285714  0.00000000  0.00000000       0.012
   0.28571429  0.00000000  0.00000000       0.012
   0.42857143  0.00000000  0.00000000       0.012
  -0.42857143  0.00000000  0.00000000       0.012
  -0.28571429  0.00000000  0.00000000       0.012
  -0.14285714  0.00000000  0.00000000       0.012
   0.14285714  0.14285714  0.00000000       0.017
   0.28571429  0.14285714  0.00000000       0.035
   0.42857143  0.14285714  0.00000000       0.035
  -0.42857143  0.14285714  0.00000000       0.035
  -0.28571429  0.14285714  0.00000000       0.035
  -0.14285714  0.14285714  0.00000000       0.035
   0.28571429  0.28571429  0.00000000       0.017
   0.42857143  0.28571429  0.00000000       0.035
  -0.42857143  0.28571429  0.00000000       0.035
  -0.28571429  0.28571429  0.00000000       0.035
  -0.14285714  0.28571429  0.00000000       0.035
   0.42857143  0.42857143  0.00000000       0.017
  -0.42857143  0.42857143  0.00000000       0.035
  -0.28571429  0.42857143  0.00000000       0.035
  -0.14285714  0.42857143  0.00000000       0.035
  -0.28571429 -0.42857143  0.00000000       0.035
  -0.14285714 -0.42857143  0.00000000       0.035
  -0.14285714 -0.28571429  0.00000000       0.035
   0.42857143  0.28571429  0.14285714       0.070
  -0.42857143  0.28571429  0.14285714       0.070
  -0.28571429  0.28571429  0.14285714       0.070
  -0.42857143  0.42857143  0.14285714       0.070
  -0.28571429  0.42857143  0.14285714       0.070
 
 position of ions in fractional coordinates (direct lattice) 
   0.00000000  0.00000000  0.00000000
   0.75000000  0.75000000  0.75000000
 
 position of ions in cartesian coordinates  (Angst):
   0.00000000  0.00000000  0.00000000
   4.54380000  4.54380000  4.54380000
 
 Euler angles ALPHA=     0.0000000  BETA=     0.0000000

 transformation matrix from SAXIS to cartesian coordinates
 ---------------------------------------------------------
     1.0000000 m_x     0.0000000 m_y     0.0000000 m_z
     0.0000000 m_x     1.0000000 m_y     0.0000000 m_z
     0.0000000 m_x     0.0000000 m_y     1.0000000 m_z

 transformation matrix from cartesian coordinates to SAXIS
 ---------------------------------------------------------
     1.0000000 m_x     0.0000000 m_y     0.0000000 m_z
     0.0000000 m_x     1.0000000 m_y     0.0000000 m_z
     0.0000000 m_x     0.0000000 m_y     1.0000000 m_z




--------------------------------------------------------------------------------------------------------


 k-point  1 :   0.0000 0.0000 0.0000  plane waves:    1930
 k-point  2 :   0.1429 0.0000 0.0000  plane waves:    1978
 k-point  3 :   0.2857 0.0000 0.0000  plane waves:    2020
 k-point  4 :   0.4286 0.0000 0.0000  plane waves:    2034
 k-point  5 :  -0.4286 0.0000 0.0000  plane waves:    2034
 k-point  6 :  -0.2857 0.0000 0.0000  plane waves:    2020
 k-point  7 :  -0.1429 0.0000 0.0000  plane waves:    1978
 k-point  8 :   0.1429 0.1429 0.0000  plane waves:    1988
 k-point  9 :   0.2857 0.1429 0.0000  plane waves:    2000
 k-point 10 :   0.4286 0.1429 0.0000  plane waves:    2020
 k-point 11 :  -0.4286 0.1429 0.0000  plane waves:    2012
 k-point 12 :  -0.2857 0.1429 0.0000  plane waves:    2036
 k-point 13 :  -0.1429 0.1429 0.0000  plane waves:    1990
 k-point 14 :   0.2857 0.2857 0.0000  plane waves:    2036
 k-point 15 :   0.4286 0.2857 0.0000  plane waves:    2024
 k-point 16 :  -0.4286 0.2857 0.0000  plane waves:    2022
 k-point 17 :  -0.2857 0.2857 0.0000  plane waves:    2022
 k-point 18 :  -0.1429 0.2857 0.0000  plane waves:    2036
 k-point 19 :   0.4286 0.4286 0.0000  plane waves:    2012
 k-point 20 :  -0.4286 0.4286 0.0000  plane waves:    2026
 k-point 21 :  -0.2857 0.4286 0.0000  plane waves:    2022
 k-point 22 :  -0.1429 0.4286 0.0000  plane waves:    2012
 k-point 23 :  -0.2857-0.4286 0.0000  plane waves:    2024
 k-point 24 :  -0.1429-0.4286 0.0000  plane waves:    2020
 k-point 25 :  -0.1429-0.2857 0.0000  plane waves:    2000
 k-point 26 :   0.4286 0.2857 0.1429  plane waves:    2022
 k-point 27 :  -0.4286 0.2857 0.1429  plane waves:    2026
 k-point 28 :  -0.2857 0.2857 0.1429  plane waves:    2026
 k-point 29 :  -0.4286 0.4286 0.1429  plane waves:    2038
 k-point 30 :  -0.2857 0.4286 0.1429  plane waves:    2028

 maximum and minimum number of plane-waves per node :       704      622

 maximum number of plane-waves:      2038
 maximum index in each direction: 
   IXMAX=    7   IYMAX=    7   IZMAX=    6
   IXMIN=   -7   IYMIN=   -7   IZMIN=   -7


 parallel 3D FFT for wavefunctions:
    minimum data exchange during FFTs selected (reduces bandwidth)
 parallel 3D FFT for charge:
    minimum data exchange during FFTs selected (reduces bandwidth)


 total amount of memory used by VASP MPI-rank0    45585. kBytes
=======================================================================

   base      :      30000. kBytes
   nonl-proj :       3069. kBytes
   fftplans  :       1050. kBytes
   grid      :       3907. kBytes
   one-center:         62. kBytes
   wavefun   :       7497. kBytes
 
     INWAV:  cpu time    0.0000: real time    0.0000
 Broyden mixing: mesh for mixing (old mesh)
   NGX = 13   NGY = 13   NGZ = 13
  (NGX  = 48   NGY  = 48   NGZ  = 48)
  gives a total of   2197 points

 initial charge density was supplied:
 charge density of overlapping atoms calculated
 number of electron      18.0000000 magnetization       0.0000000      0.0000000      0.0000000
 keeping initial charge density in first step


--------------------------------------------------------------------------------------------------------


 Maximum index for augmentation-charges         1552 (set IRDMAX)


--------------------------------------------------------------------------------------------------------


 First call to EWALD:  gamma=   0.464
 Maximum number of real-space cells 3x 3x 3
 Maximum number of reciprocal cells 3x 3x 3

    FEWALD:  cpu time    0.0022: real time    0.0023


--------------------------------------- Iteration      1(   1)  ---------------------------------------


    POTLOK:  cpu time    0.0242: real time    0.0246
    SETDIJ:  cpu time    0.0089: real time    0.0090
    TRIAL :  cpu time    0.0716: real time    0.0724
    CORREC:  cpu time    0.0002: real time    0.0002
    --------------------------------------------
      LOOP:  cpu time    0.1102: real time    0.1116

 eigenvalue-minimisations  :  1371
 total energy-change (2. order) : 0.1875248E+03  (-0.6607797E+03)
 number of electron      18.0000000 magnetization       0.0000000      0.0000000      0.0000000
 augmentation part       18.0000000 magnetization       0.0000000      0.0000000      0.0000000

 Free energy of the ion-electron system (eV)
  ---------------------------------------------------
  alpha Z        PSCENC =        38.22227472
  Ewald energy   TEWEN  =     -1180.94574891
  -Hartree energ DENC   =      -574.28475018
  -exchange      EXHF   =         0.00000000
  -V(xc)+E(xc)   XCENC  =        30.05432960
  PAW double counting   =      1528.00464014    -1497.75096141
  entropy T*S    EENTRO =        -0.00008400
  eigenvalues    EBANDS =        97.21461585
  atomic energy  EATOM  =      1747.01046045
  ---------------------------------------------------
  free energy    TOTEN  =       187.52477625 eV

  energy without entropy =      187.52486025  energy(sigma->0) =      187.52480425


--------------------------------------------------------------------------------------------------------




--------------------------------------- Iteration      1(   2)  ---------------------------------------


    TRIAL :  cpu time    0.0707: real time    0.0714
    CORREC:  cpu time    0.0002: real time    0.0002
    --------------------------------------------
      LOOP:  cpu time    0.0716: real time    0.0725

 eigenvalue-minimisations  :  1857
 total energy-change (2. order) :-0.1360089E+03  (-0.1329166E+03)
 number of electron      18.0000000 magnetization       0.0000000      0.0000000      0.0000000
 augmentation part       18.0000000 magnetization       0.0000000      0.0000000      0.0000000

 Free energy of the ion-electron system (eV)
  ---------------------------------------------------
  alpha Z        PSCENC =        38.22227472
  Ewald energy   TEWEN  =     -1180.94574891
  -Hartree energ DENC   =      -574.28475018
  -exchange      EXHF   =         0.00000000
  -V(xc)+E(xc)   XCENC  =        30.05432960
  PAW double counting   =      1528.00464014    -1497.75096141
  entropy T*S    EENTRO =        -0.00020500
  eigenvalues    EBANDS =       -38.79413929
  atomic energy  EATOM  =      1747.01046045
  ---------------------------------------------------
  free energy    TOTEN  =        51.51590011 eV

  energy without entropy =       51.51610511  energy(sigma->0) =       51.51596844


--------------------------------------------------------------------------------------------------------




--------------------------------------- Iteration      1(   3)  ---------------------------------------


    TRIAL :  cpu time    0.0628: real time    0.0632
    CORREC:  cpu time    0.0002: real time    0.0002
    --------------------------------------------
      LOOP:  cpu time    0.0633: real time    0.0637

 eigenvalue-minimisations  :  1701
 total energy-change (2. order) :-0.4423485E+02  (-0.4287039E+02)
 number of electron      18.0000000 magnetization       0.0000000      0.0000000      0.0000000
 augmentation part       18.0000000 magnetization       0.0000000      0.0000000      0.0000000

 Free energy of the ion-electron system (eV)
  ---------------------------------------------------
  alpha Z        PSCENC =        38.22227472
  Ewald energy   TEWEN  =     -1180.94574891
  -Hartree energ DENC   =      -574.28475018
  -exchange      EXHF   =         0.00000000
  -V(xc)+E(xc)   XCENC  =        30.05432960
  PAW double counting   =      1528.00464014    -1497.75096141
  entropy T*S    EENTRO =         0.00003952
  eigenvalues    EBANDS =       -83.02923458
  atomic energy  EATOM  =      1747.01046045
  ---------------------------------------------------
  free energy    TOTEN  =         7.28104935 eV

  energy without entropy =        7.28100983  energy(sigma->0) =        7.28103617


--------------------------------------------------------------------------------------------------------




--------------------------------------- Iteration      1(   4)  ---------------------------------------


    TRIAL :  cpu time    0.0781: real time    0.0787
    CORREC:  cpu time    0.0002: real time    0.0002
    --------------------------------------------
      LOOP:  cpu time    0.0786: real time    0.0792

 eigenvalue-minimisations  :  2466
 total energy-change (2. order) :-0.1620522E+02  (-0.1594615E+02)
 number of electron      18.0000000 magnetization       0.0000000      0.0000000      0.0000000
 augmentation part       18.0000000 magnetization       0.0000000      0.0000000      0.0000000

 Free energy of the ion-electron system (eV)
  ---------------------------------------------------
  alpha Z        PSCENC =        38.22227472
  Ewald energy   TEWEN  =     -1180.94574891
  -Hartree energ DENC   =      -574.28475018
  -exchange      EXHF   =         0.00000000
  -V(xc)+E(xc)   XCENC  =        30.05432960
  PAW double counting   =      1528.00464014    -1497.75096141
  entropy T*S    EENTRO =        -0.00005708
  eigenvalues    EBANDS =       -99.23435647
  atomic energy  EATOM  =      1747.01046045
  ---------------------------------------------------
  free energy    TOTEN  =        -8.92416915 eV

  energy without entropy =       -8.92411207  energy(sigma->0) =       -8.92415012


--------------------------------------------------------------------------------------------------------




--------------------------------------- Iteration      1(   5)  ---------------------------------------


    TRIAL :  cpu time    0.0775: real time    0.0782
    CORREC:  cpu time    0.0002: real time    0.0002
    CHARGE:  cpu time    0.0141: real time    0.0143
    --------------------------------------------
      LOOP:  cpu time    0.0921: real time    0.0930

 eigenvalue-minimisations  :  2520
 total energy-change (2. order) :-0.2470531E+01  (-0.2442696E+01)
 number of electron      17.9999986 magnetization      -0.0000000     -0.0000000      0.0000000
 augmentation part        6.2753831 magnetization      -0.0000000     -0.0000000      0.0000000

 Free energy of the ion-electron system (eV)
  ---------------------------------------------------
  alpha Z        PSCENC =        38.22227472
  Ewald energy   TEWEN  =     -1180.94574891
  -Hartree energ DENC   =      -574.28475018
  -exchange      EXHF   =         0.00000000
  -V(xc)+E(xc)   XCENC  =        30.05432960
  PAW double counting   =      1528.00464014    -1497.75096141
  entropy T*S    EENTRO =         0.00000423
  eigenvalues    EBANDS =      -101.70494843
  atomic energy  EATOM  =      1747.01046045
  ---------------------------------------------------
  free energy    TOTEN  =       -11.39469980 eV

  energy without entropy =      -11.39470403  energy(sigma->0) =      -11.39470121


--------------------------------------------------------------------------------------------------------




--------------------------------------- Iteration      1(   6)  ---------------------------------------


    POTLOK:  cpu time    0.0199: real time    0.0202
    SETDIJ:  cpu time    0.0086: real time    0.0087
    TRIAL :  cpu time    0.0315: real time    0.0318
    CORREC:  cpu time    0.0002: real time    0.0002
    CHARGE:  cpu time    0.0122: real time    0.0123
    --------------------------------------------
      LOOP:  cpu time    0.0726: real time    0.0734

 eigenvalue-minimisations  :     0
 total energy-change (2. order) : 0.1103776E+01  (-0.8862228E+00)
 number of electron      17.9999986 magnetization      -0.0000000      0.0000000      0.0000000
 augmentation part        6.3202758 magnetization      -0.0000000      0.0000000      0.0000000

 Free energy of the ion-electron system (eV)
  ---------------------------------------------------
  alpha Z        PSCENC =        38.22227472
  Ewald energy   TEWEN  =     -1180.94574891
  -Hartree energ DENC   =      -570.97834950
  -exchange      EXHF   =         0.00000000
  -V(xc)+E(xc)   XCENC  =        30.30782013
  PAW double counting   =     44641.56943831   -44613.04160251
  entropy T*S    EENTRO =         0.00000423
  eigenvalues    EBANDS =      -102.43522072
  atomic energy  EATOM  =      1747.01046045
  ---------------------------------------------------
  free energy    TOTEN  =       -10.29092381 eV

  energy without entropy =      -10.29092803  energy(sigma->0) =      -10.29092521


--------------------------------------------------------------------------------------------------------




--------------------------------------- Iteration      1(   7)  ---------------------------------------


    POTLOK:  cpu time    0.0194: real time    0.0197
    SETDIJ:  cpu time    0.0081: real time    0.0082
    TRIAL :  cpu time    0.0310: real time    0.0315
    CORREC:  cpu time    0.0002: real time    0.0002
    CHARGE:  cpu time    0.0121: real time    0.0123
    --------------------------------------------
      LOOP:  cpu time    0.0710: real time    0.0720

 eigenvalue-minimisations  :     0
 total energy-change (2. order) :-0.6691205E+00  (-0.5223750E+00)
 number of electron      17.9999986 magnetization       0.0000000      0.0000000      0.0000000
 augmentation part        6.2765096 magnetization       0.0000000      0.0000000      0.0000000

 Free energy of the ion-electron system (eV)
  ---------------------------------------------------
  alpha Z        PSCENC =        38.22227472
  Ewald energy   TEWEN  =     -1180.94574891
  -Hartree energ DENC   =      -574.34228946
  -exchange      EXHF   =         0.00000000
  -V(xc)+E(xc)   XCENC  =        30.45317930
  PAW double counting   =     31537.94543185   -31509.37036674
  entropy T*S    EENTRO =         0.00000423
  eigenvalues    EBANDS =       -99.93298978
  atomic energy  EATOM  =      1747.01046045
  ---------------------------------------------------
  free energy    TOTEN  =       -10.96004435 eV

  energy without entropy =      -10.96004857  energy(sigma->0) =      -10.96004575


--------------------------------------------------------------------------------------------------------




--------------------------------------- Iteration      1(   8)  ---------------------------------------


    POTLOK:  cpu time    0.0194: real time    0.0197
    SETDIJ:  cpu time    0.0079: real time    0.0080
    TRIAL :  cpu time    0.0310: real time    0.0317
    CORREC:  cpu time    0.0002: real time    0.0002
    CHARGE:  cpu time    0.0121: real time    0.0122
    --------------------------------------------
      LOOP:  cpu time    0.0709: real time    0.0721

 eigenvalue-minimisations  :     0
 total energy-change (2. order) :-0.3625740E+00  (-0.2018629E+00)
 number of electron      17.9999986 magnetization       0.0000000     -0.0000000      0.0000000
 augmentation part        6.2729740 magnetization       0.0000000     -0.0000000      0.0000000

 Free energy of the ion-electron system (eV)
  ---------------------------------------------------
  alpha Z        PSCENC =        38.22227472
  Ewald energy   TEWEN  =     -1180.94574891
  -Hartree energ DENC   =      -570.24461716
  -exchange      EXHF   =         0.00000000
  -V(xc)+E(xc)   XCENC  =        30.29060621
  PAW double counting   =     21253.54787555   -21224.68771887
  entropy T*S    EENTRO =         0.00000423
  eigenvalues    EBANDS =      -104.51575458
  atomic energy  EATOM  =      1747.01046045
  ---------------------------------------------------
  free energy    TOTEN  =       -11.32261836 eV

  energy without entropy =      -11.32262259  energy(sigma->0) =      -11.32261977


--------------------------------------------------------------------------------------------------------




--------------------------------------- Iteration      1(   9)  ---------------------------------------


    POTLOK:  cpu time    0.0194: real time    0.0196
    SETDIJ:  cpu time    0.0079: real time    0.0080
    TRIAL :  cpu time    0.0308: real time    0.0315
    CORREC:  cpu time    0.0002: real time    0.0002
    CHARGE:  cpu time    0.0122: real time    0.0123
    --------------------------------------------
      LOOP:  cpu time    0.0707: real time    0.0719

 eigenvalue-minimisations  :     0
 total energy-change (2. order) :-0.1455377E+00  (-0.8727050E-01)
 number of electron      17.9999986 magnetization       0.0000000      0.0000000     -0.0000000
 augmentation part        6.2665865 magnetization       0.0000000      0.0000000     -0.0000000

 Free energy of the ion-electron system (eV)
  ---------------------------------------------------
  alpha Z        PSCENC =        38.22227472
  Ewald energy   TEWEN  =     -1180.94574891
  -Hartree energ DENC   =      -571.48351981
  -exchange      EXHF   =         0.00000000
  -V(xc)+E(xc)   XCENC  =        30.33247306
  PAW double counting   =     15543.99356616   -15515.24353240
  entropy T*S    EENTRO =         0.00000423
  eigenvalues    EBANDS =      -103.35413352
  atomic energy  EATOM  =      1747.01046045
  ---------------------------------------------------
  free energy    TOTEN  =       -11.46815602 eV

  energy without entropy =      -11.46816024  energy(sigma->0) =      -11.46815743


--------------------------------------------------------------------------------------------------------




--------------------------------------- Iteration      1(  10)  ---------------------------------------


    POTLOK:  cpu time    0.0192: real time    0.0194
    SETDIJ:  cpu time    0.0080: real time    0.0081
    TRIAL :  cpu time    0.0307: real time    0.0314
    CORREC:  cpu time    0.0002: real time    0.0002
    CHARGE:  cpu time    0.0120: real time    0.0121
    --------------------------------------------
      LOOP:  cpu time    0.0704: real time    0.0714

 eigenvalue-minimisations  :     0
 total energy-change (2. order) :-0.6624796E-01  (-0.4358587E-01)
 number of electron      17.9999986 magnetization      -0.0000000     -0.0000000     -0.0000000
 augmentation part        6.2515274 magnetization      -0.0000000     -0.0000000     -0.0000000

 Free energy of the ion-electron system (eV)
  ---------------------------------------------------
  alpha Z        PSCENC =        38.22227472
  Ewald energy   TEWEN  =     -1180.94574891
  -Hartree energ DENC   =      -572.57282171
  -exchange      EXHF   =         0.00000000
  -V(xc)+E(xc)   XCENC  =        30.36608988
  PAW double counting   =     12677.93714062   -12649.36416295
  entropy T*S    EENTRO =         0.00000423
  eigenvalues    EBANDS =      -102.18764030
  atomic energy  EATOM  =      1747.01046045
  ---------------------------------------------------
  free energy    TOTEN  =       -11.53440398 eV

  energy without entropy =      -11.53440821  energy(sigma->0) =      -11.53440539


--------------------------------------------------------------------------------------------------------




--------------------------------------- Iteration      1(  11)  ---------------------------------------


    POTLOK:  cpu time    0.0193: real time    0.0195
    SETDIJ:  cpu time    0.0082: real time    0.0082
    TRIAL :  cpu time    0.0307: real time    0.0314
    CORREC:  cpu time    0.0002: real time    0.0002
    CHARGE:  cpu time    0.0120: real time    0.0121
    --------------------------------------------
      LOOP:  cpu time    0.0707: real time    0.0717

 eigenvalue-minimisations  :     0
 total energy-change (2. order) :-0.3341595E-01  (-0.1907499E-01)
 number of electron      17.9999986 magnetization      -0.0000000     -0.0000000     -0.0000000
 augmentation part        6.2492935 magnetization      -0.0000000     -0.0000000     -0.0000000

 Free energy of the ion-electron system (eV)
  ---------------------------------------------------
  alpha Z        PSCENC =        38.22227472
  Ewald energy   TEWEN  =     -1180.94574891
  -Hartree energ DENC   =      -572.11343539
  -exchange      EXHF   =         0.00000000
  -V(xc)+E(xc)   XCENC  =        30.33956470
  PAW double counting   =     11273.46639370   -11244.98399871
  entropy T*S    EENTRO =         0.00000423
  eigenvalues    EBANDS =      -102.56333471
  atomic energy  EATOM  =      1747.01046045
  ---------------------------------------------------
  free energy    TOTEN  =       -11.56781993 eV

  energy without entropy =      -11.56782415  energy(sigma->0) =      -11.56782134


--------------------------------------------------------------------------------------------------------




--------------------------------------- Iteration      1(  12)  ---------------------------------------


    POTLOK:  cpu time    0.0194: real time    0.0196
    SETDIJ:  cpu time    0.0077: real time    0.0078
    TRIAL :  cpu time    0.0310: real time    0.0317
    CORREC:  cpu time    0.0002: real time    0.0002
    CHARGE:  cpu time    0.0121: real time    0.0122
    --------------------------------------------
      LOOP:  cpu time    0.0707: real time    0.0717

 eigenvalue-minimisations  :     0
 total energy-change (2. order) :-0.1473622E-01  (-0.8176034E-02)
 number of electron      17.9999986 magnetization      -0.0000000     -0.0000000      0.0000000
 augmentation part        6.2506223 magnetization      -0.0000000     -0.0000000      0.0000000

 Free energy of the ion-electron system (eV)
  ---------------------------------------------------
  alpha Z        PSCENC =        38.22227472
  Ewald energy   TEWEN  =     -1180.94574891
  -Hartree energ DENC   =      -572.27530336
  -exchange      EXHF   =         0.00000000
  -V(xc)+E(xc)   XCENC  =        30.34050229
  PAW double counting   =     10588.67385093   -10560.26583774
  entropy T*S    EENTRO =         0.00000436
  eigenvalues    EBANDS =      -102.34275874
  atomic energy  EATOM  =      1747.01046045
  ---------------------------------------------------
  free energy    TOTEN  =       -11.58255615 eV

  energy without entropy =      -11.58256051  energy(sigma->0) =      -11.58255760


--------------------------------------------------------------------------------------------------------




--------------------------------------- Iteration      1(  13)  ---------------------------------------


    POTLOK:  cpu time    0.0193: real time    0.0195
    SETDIJ:  cpu time    0.0078: real time    0.0079
    TRIAL :  cpu time    0.0313: real time    0.0321
    CORREC:  cpu time    0.0002: real time    0.0002
    CHARGE:  cpu time    0.0123: real time    0.0125
    --------------------------------------------
      LOOP:  cpu time    0.0712: real time    0.0724

 eigenvalue-minimisations  :     0
 total energy-change (2. order) :-0.6485426E-02  (-0.3856228E-02)
 number of electron      17.9999986 magnetization       0.0000000     -0.0000000     -0.0000000
 augmentation part        6.2493933 magnetization       0.0000000     -0.0000000     -0.0000000

 Free energy of the ion-electron system (eV)
  ---------------------------------------------------
  alpha Z        PSCENC =        38.22227472
  Ewald energy   TEWEN  =     -1180.94574891
  -Hartree energ DENC   =      -572.46242231
  -exchange      EXHF   =         0.00000000
  -V(xc)+E(xc)   XCENC  =        30.34551040
  PAW double counting   =     10267.44550350   -10239.06759554
  entropy T*S    EENTRO =         0.00000710
  eigenvalues    EBANDS =      -102.13702824
  atomic energy  EATOM  =      1747.01046045
  ---------------------------------------------------
  free energy    TOTEN  =       -11.58904157 eV

  energy without entropy =      -11.58904867  energy(sigma->0) =      -11.58904394


--------------------------------------------------------------------------------------------------------




--------------------------------------- Iteration      1(  14)  ---------------------------------------


    POTLOK:  cpu time    0.0190: real time    0.0193
    SETDIJ:  cpu time    0.0087: real time    0.0088
    TRIAL :  cpu time    0.0368: real time    0.0375
    CORREC:  cpu time    0.0002: real time    0.0002
    CHARGE:  cpu time    0.0129: real time    0.0130
    --------------------------------------------
      LOOP:  cpu time    0.0791: real time    0.0802

 eigenvalue-minimisations  :     0
 total energy-change (2. order) :-0.3147844E-02  (-0.1938106E-02)
 number of electron      17.9999986 magnetization       0.0000000     -0.0000000     -0.0000000
 augmentation part        6.2489300 magnetization       0.0000000     -0.0000000     -0.0000000

 Free energy of the ion-electron system (eV)
  ---------------------------------------------------
  alpha Z        PSCENC =        38.22227472
  Ewald energy   TEWEN  =     -1180.94574891
  -Hartree energ DENC   =      -572.31719018
  -exchange      EXHF   =         0.00000000
  -V(xc)+E(xc)   XCENC  =        30.33945369
  PAW double counting   =     10132.47248782   -10104.08466809
  entropy T*S    EENTRO =         0.00001914
  eigenvalues    EBANDS =      -102.28926601
  atomic energy  EATOM  =      1747.01046045
  ---------------------------------------------------
  free energy    TOTEN  =       -11.59218942 eV

  energy without entropy =      -11.59220855  energy(sigma->0) =      -11.59219579


--------------------------------------------------------------------------------------------------------




--------------------------------------- Iteration      1(  15)  ---------------------------------------


    POTLOK:  cpu time    0.0192: real time    0.0194
    SETDIJ:  cpu time    0.0084: real time    0.0084
    TRIAL :  cpu time    0.0310: real time    0.0317
    CORREC:  cpu time    0.0002: real time    0.0002
    CHARGE:  cpu time    0.0122: real time    0.0124
    --------------------------------------------
      LOOP:  cpu time    0.0714: real time    0.0725

 eigenvalue-minimisations  :     0
 total energy-change (2. order) :-0.1625055E-02  (-0.9982084E-03)
 number of electron      17.9999986 magnetization      -0.0000000      0.0000000      0.0000000
 augmentation part        6.2496983 magnetization      -0.0000000      0.0000000      0.0000000

 Free energy of the ion-electron system (eV)
  ---------------------------------------------------
  alpha Z        PSCENC =        38.22227472
  Ewald energy   TEWEN  =     -1180.94574891
  -Hartree energ DENC   =      -572.27349381
  -exchange      EXHF   =         0.00000000
  -V(xc)+E(xc)   XCENC  =        30.33816412
  PAW double counting   =     10090.63691593   -10062.24105316
  entropy T*S    EENTRO =        -0.00001808
  eigenvalues    EBANDS =      -102.34135295
  atomic energy  EATOM  =      1747.01046045
  ---------------------------------------------------
  free energy    TOTEN  =       -11.59381447 eV

  energy without entropy =      -11.59379640  energy(sigma->0) =      -11.59380845


--------------------------------------------------------------------------------------------------------




--------------------------------------- Iteration      1(  16)  ---------------------------------------


    POTLOK:  cpu time    0.0192: real time    0.0194
    SETDIJ:  cpu time    0.0090: real time    0.0091
    TRIAL :  cpu time    0.0311: real time    0.0319
    CORREC:  cpu time    0.0003: real time    0.0003
    CHARGE:  cpu time    0.0125: real time    0.0126
    --------------------------------------------
      LOOP:  cpu time    0.0723: real time    0.0735

 eigenvalue-minimisations  :     0
 total energy-change (2. order) :-0.1055096E-02  (-0.7738239E-03)
 number of electron      17.9999986 magnetization       0.0000000      0.0000000      0.0000000
 augmentation part        6.2501143 magnetization       0.0000000      0.0000000      0.0000000

 Free energy of the ion-electron system (eV)
  ---------------------------------------------------
  alpha Z        PSCENC =        38.22227472
  Ewald energy   TEWEN  =     -1180.94574891
  -Hartree energ DENC   =      -572.34030754
  -exchange      EXHF   =         0.00000000
  -V(xc)+E(xc)   XCENC  =        30.34169418
  PAW double counting   =     10094.02972434   -10065.63197711
  entropy T*S    EENTRO =        -0.00002620
  eigenvalues    EBANDS =      -102.28097162
  atomic energy  EATOM  =      1747.01046045
  ---------------------------------------------------
  free energy    TOTEN  =       -11.59486957 eV

  energy without entropy =      -11.59484337  energy(sigma->0) =      -11.59486083


--------------------------------------------------------------------------------------------------------




--------------------------------------- Iteration      1(  17)  ---------------------------------------


    POTLOK:  cpu time    0.0191: real time    0.0193
    SETDIJ:  cpu time    0.0083: real time    0.0083
    TRIAL :  cpu time    0.0306: real time    0.0312
    CORREC:  cpu time    0.0002: real time    0.0002
    CHARGE:  cpu time    0.0121: real time    0.0122
    --------------------------------------------
      LOOP:  cpu time    0.0706: real time    0.0715

 eigenvalue-minimisations  :     0
 total energy-change (2. order) :-0.6516194E-03  (-0.3378770E-03)
 number of electron      17.9999986 magnetization      -0.0000000     -0.0000000     -0.0000000
 augmentation part        6.2500694 magnetization      -0.0000000     -0.0000000     -0.0000000

 Free energy of the ion-electron system (eV)
  ---------------------------------------------------
  alpha Z        PSCENC =        38.22227472
  Ewald energy   TEWEN  =     -1180.94574891
  -Hartree energ DENC   =      -572.34927992
  -exchange      EXHF   =         0.00000000
  -V(xc)+E(xc)   XCENC  =        30.34288233
  PAW double counting   =     10115.62137081   -10087.21986602
  entropy T*S    EENTRO =        -0.00001591
  eigenvalues    EBANDS =      -102.27758844
  atomic energy  EATOM  =      1747.01046045
  ---------------------------------------------------
  free energy    TOTEN  =       -11.59552119 eV

  energy without entropy =      -11.59550528  energy(sigma->0) =      -11.59551588


--------------------------------------------------------------------------------------------------------




--------------------------------------- Iteration      1(  18)  ---------------------------------------


    POTLOK:  cpu time    0.0196: real time    0.0197
    SETDIJ:  cpu time    0.0082: real time    0.0082
    TRIAL :  cpu time    0.0316: real time    0.0323
    CORREC:  cpu time    0.0002: real time    0.0002
    CHARGE:  cpu time    0.0121: real time    0.0122
    --------------------------------------------
      LOOP:  cpu time    0.0718: real time    0.0728

 eigenvalue-minimisations  :     0
 total energy-change (2. order) :-0.2672064E-03  (-0.1523713E-03)
 number of electron      17.9999986 magnetization      -0.0000000      0.0000000      0.0000000
 augmentation part        6.2502171 magnetization      -0.0000000      0.0000000      0.0000000

 Free energy of the ion-electron system (eV)
  ---------------------------------------------------
  alpha Z        PSCENC =        38.22227472
  Ewald energy   TEWEN  =     -1180.94574891
  -Hartree energ DENC   =      -572.33462136
  -exchange      EXHF   =         0.00000000
  -V(xc)+E(xc)   XCENC  =        30.34239095
  PAW double counting   =     10138.57366512   -10110.17101935
  entropy T*S    EENTRO =        -0.00000776
  eigenvalues    EBANDS =      -102.29317409
  atomic energy  EATOM  =      1747.01046045
  ---------------------------------------------------
  free energy    TOTEN  =       -11.59578839 eV

  energy without entropy =      -11.59578063  energy(sigma->0) =      -11.59578581


--------------------------------------------------------------------------------------------------------




--------------------------------------- Iteration      1(  19)  ---------------------------------------


    POTLOK:  cpu time    0.0191: real time    0.0193
    SETDIJ:  cpu time    0.0082: real time    0.0082
    TRIAL :  cpu time    0.0316: real time    0.0323
    CORREC:  cpu time    0.0002: real time    0.0002
    CHARGE:  cpu time    0.0121: real time    0.0123
    --------------------------------------------
      LOOP:  cpu time    0.0714: real time    0.0725

 eigenvalue-minimisations  :     0
 total energy-change (2. order) :-0.1546004E-03  (-0.1145395E-03)
 number of electron      17.9999986 magnetization       0.0000000     -0.0000000     -0.0000000
 augmentation part        6.2504229 magnetization       0.0000000     -0.0000000     -0.0000000

 Free energy of the ion-electron system (eV)
  ---------------------------------------------------
  alpha Z        PSCENC =        38.22227472
  Ewald energy   TEWEN  =     -1180.94574891
  -Hartree energ DENC   =      -572.33976863
  -exchange      EXHF   =         0.00000000
  -V(xc)+E(xc)   XCENC  =        30.34264154
  PAW double counting   =     10156.79385236   -10128.39130398
  entropy T*S    EENTRO =         0.00000627
  eigenvalues    EBANDS =      -102.28834278
  atomic energy  EATOM  =      1747.01046045
  ---------------------------------------------------
  free energy    TOTEN  =       -11.59594299 eV

  energy without entropy =      -11.59594926  energy(sigma->0) =      -11.59594508


--------------------------------------------------------------------------------------------------------




--------------------------------------- Iteration      1(  20)  ---------------------------------------


    POTLOK:  cpu time    0.0192: real time    0.0194
    SETDIJ:  cpu time    0.0084: real time    0.0085
    TRIAL :  cpu time    0.0308: real time    0.0316
    CORREC:  cpu time    0.0002: real time    0.0002
    CHARGE:  cpu time    0.0121: real time    0.0122
    --------------------------------------------
      LOOP:  cpu time    0.0709: real time    0.0721

 eigenvalue-minimisations  :     0
 total energy-change (2. order) :-0.1322669E-03  (-0.9933882E-04)
 number of electron      17.9999986 magnetization       0.0000000      0.0000000      0.0000000
 augmentation part        6.2505586 magnetization       0.0000000      0.0000000      0.0000000

 Free energy of the ion-electron system (eV)
  ---------------------------------------------------
  alpha Z        PSCENC =        38.22227472
  Ewald energy   TEWEN  =     -1180.94574891
  -Hartree energ DENC   =      -572.34326396
  -exchange      EXHF   =         0.00000000
  -V(xc)+E(xc)   XCENC  =        30.34303872
  PAW double counting   =     10169.11654480   -10140.71288442
  entropy T*S    EENTRO =         0.00002316
  eigenvalues    EBANDS =      -102.28650293
  atomic energy  EATOM  =      1747.01046045
  ---------------------------------------------------
  free energy    TOTEN  =       -11.59607526 eV

  energy without entropy =      -11.59609842  energy(sigma->0) =      -11.59608298


--------------------------------------------------------------------------------------------------------




--------------------------------------- Iteration      1(  21)  ---------------------------------------


    POTLOK:  cpu time    0.0196: real time    0.0199
    SETDIJ:  cpu time    0.0082: real time    0.0082
    TRIAL :  cpu time    0.0308: real time    0.0316
    CORREC:  cpu time    0.0002: real time    0.0002
    CHARGE:  cpu time    0.0121: real time    0.0122
    --------------------------------------------
      LOOP:  cpu time    0.0712: real time    0.0724

 eigenvalue-minimisations  :     0
 total energy-change (2. order) :-0.9801245E-04  (-0.5769269E-04)
 number of electron      17.9999986 magnetization      -0.0000000     -0.0000000      0.0000000
 augmentation part        6.2506432 magnetization      -0.0000000     -0.0000000      0.0000000

 Free energy of the ion-electron system (eV)
  ---------------------------------------------------
  alpha Z        PSCENC =        38.22227472
  Ewald energy   TEWEN  =     -1180.94574891
  -Hartree energ DENC   =      -572.34041494
  -exchange      EXHF   =         0.00000000
  -V(xc)+E(xc)   XCENC  =        30.34319766
  PAW double counting   =     10176.13938997   -10147.73420349
  entropy T*S    EENTRO =         0.00002295
  eigenvalues    EBANDS =      -102.29115189
  atomic energy  EATOM  =      1747.01046045
  ---------------------------------------------------
  free energy    TOTEN  =       -11.59617327 eV

  energy without entropy =      -11.59619622  energy(sigma->0) =      -11.59618092


--------------------------------------------------------------------------------------------------------




--------------------------------------- Iteration      1(  22)  ---------------------------------------


    POTLOK:  cpu time    0.0194: real time    0.0197
    SETDIJ:  cpu time    0.0078: real time    0.0078
    TRIAL :  cpu time    0.0315: real time    0.0323
    CORREC:  cpu time    0.0002: real time    0.0002
    CHARGE:  cpu time    0.0122: real time    0.0123
    --------------------------------------------
      LOOP:  cpu time    0.0713: real time    0.0725

 eigenvalue-minimisations  :     0
 total energy-change (2. order) :-0.4461674E-04  (-0.1965690E-04)
 number of electron      17.9999986 magnetization       0.0000000     -0.0000000      0.0000000
 augmentation part        6.2506149 magnetization       0.0000000     -0.0000000      0.0000000

 Free energy of the ion-electron system (eV)
  ---------------------------------------------------
  alpha Z        PSCENC =        38.22227472
  Ewald energy   TEWEN  =     -1180.94574891
  -Hartree energ DENC   =      -572.34444179
  -exchange      EXHF   =         0.00000000
  -V(xc)+E(xc)   XCENC  =        30.34341995
  PAW double counting   =     10178.87955838   -10150.47425454
  entropy T*S    EENTRO =         0.00001615
  eigenvalues    EBANDS =      -102.28750910
  atomic energy  EATOM  =      1747.01046045
  ---------------------------------------------------
  free energy    TOTEN  =       -11.59621789 eV

  energy without entropy =      -11.59623404  energy(sigma->0) =      -11.59622327


--------------------------------------------------------------------------------------------------------




--------------------------------------- Iteration      1(  23)  ---------------------------------------


    POTLOK:  cpu time    0.0193: real time    0.0194
    SETDIJ:  cpu time    0.0079: real time    0.0080
    TRIAL :  cpu time    0.0309: real time    0.0316
    CORREC:  cpu time    0.0002: real time    0.0002
    CHARGE:  cpu time    0.0121: real time    0.0122
    --------------------------------------------
      LOOP:  cpu time    0.0706: real time    0.0717

 eigenvalue-minimisations  :     0
 total energy-change (2. order) :-0.1589049E-04  (-0.7510595E-05)
 number of electron      17.9999986 magnetization      -0.0000000      0.0000000      0.0000000
 augmentation part        6.2506158 magnetization      -0.0000000      0.0000000      0.0000000

 Free energy of the ion-electron system (eV)
  ---------------------------------------------------
  alpha Z        PSCENC =        38.22227472
  Ewald energy   TEWEN  =     -1180.94574891
  -Hartree energ DENC   =      -572.34271375
  -exchange      EXHF   =         0.00000000
  -V(xc)+E(xc)   XCENC  =        30.34333854
  PAW double counting   =     10179.10387749   -10150.69854086
  entropy T*S    EENTRO =         0.00001376
  eigenvalues    EBANDS =      -102.28919761
  atomic energy  EATOM  =      1747.01046045
  ---------------------------------------------------
  free energy    TOTEN  =       -11.59623378 eV

  energy without entropy =      -11.59624754  energy(sigma->0) =      -11.59623837


--------------------------------------------------------------------------------------------------------




--------------------------------------- Iteration      1(  24)  ---------------------------------------


    POTLOK:  cpu time    0.0198: real time    0.0200
    SETDIJ:  cpu time    0.0076: real time    0.0076
    TRIAL :  cpu time    0.0307: real time    0.0314
    CORREC:  cpu time    0.0002: real time    0.0002
    EDDIAG:  cpu time    0.0113: real time    0.0115
    CHARGE:  cpu time    0.0120: real time    0.0121
    --------------------------------------------
      LOOP:  cpu time    0.0819: real time    0.0831

 eigenvalue-minimisations  :     0
 total energy-change (2. order) :-0.5770349E-05  (-0.2623244E-05)
 number of electron      17.9999986 magnetization       0.0000000      0.0000000      0.0000000
 augmentation part        6.2506019 magnetization       0.0000000      0.0000000      0.0000000

 Free energy of the ion-electron system (eV)
  ---------------------------------------------------
  alpha Z        PSCENC =        38.22227472
  Ewald energy   TEWEN  =     -1180.94574891
  -Hartree energ DENC   =      -572.34392858
  -exchange      EXHF   =         0.00000000
  -V(xc)+E(xc)   XCENC  =        30.34339481
  PAW double counting   =     10178.25166476   -10149.84634384
  entropy T*S    EENTRO =         0.00001288
  eigenvalues    EBANDS =      -102.28802673
  atomic energy  EATOM  =      1747.01046045
  ---------------------------------------------------
  free energy    TOTEN  =       -11.59623955 eV

  energy without entropy =      -11.59625243  energy(sigma->0) =      -11.59624384


--------------------------------------------------------------------------------------------------------


  average scaling for gradient   1.4994


 average (electrostatic) potential at core
  the test charge radii are     1.0774  1.0621
  (the norm of the test charge is              1.0000)
       1 -96.4983       2 -49.5594
 
 
 
 E-fermi :   4.2475     XC(G=0):  -9.0186     alpha+bet :-10.0479


 k-point     1 :       0.0000    0.0000    0.0000
  band No.  band energies     occupation 
      1     -10.2731      1.00000
      2     -10.2731      1.00000
      3     -10.2731      1.00000
      4     -10.2731      1.00000
      5      -9.4823      1.00000
      6      -9.4823      1.00000
      7      -9.3963      1.00000
      8      -9.3963      1.00000
      9      -9.3963      1.00000
     10      -9.3963      1.00000
     11      -7.3128      1.00000
     12      -7.3128      1.00000
     13       3.8071      1.00000
     14       3.8071      1.00000
     15       4.1267      1.00168
     16       4.1267      1.00170
     17       4.1267      1.00186
     18       4.1269      1.00362
     19       4.2888      0.00250
     20       4.2890     -0.01136
     21       7.8523      0.00000

 k-point     2 :       0.1429    0.0000    0.0000
  band No.  band energies     occupation 
      1     -10.2776      1.00000
      2     -10.2776      1.00000
      3     -10.2755      1.00000
      4     -10.2675      1.00000
      5      -9.4869      1.00000
      6      -9.4869      1.00000
      7      -9.4059      1.00000
      8      -9.4059      1.00000
      9      -9.3952      1.00000
     10      -9.3853      1.00000
     11      -7.1115      1.00000
     12      -7.1115      1.00000
     13       2.0978      1.00000
     14       2.0978      1.00000
     15       3.6553      1.00000
     16       3.6553      1.00000
     17       3.8671      1.00000
     18       3.8770      1.00000
     19       5.4246     -0.00000
     20       5.4246     -0.00000
     21       8.0439      0.00000

 k-point     3 :       0.2857    0.0000    0.0000
  band No.  band energies     occupation 
      1     -10.2889      1.00000
      2     -10.2889      1.00000
      3     -10.2730      1.00000
      4     -10.2632      1.00000
      5      -9.4957      1.00000
      6      -9.4957      1.00000
      7      -9.4227      1.00000
      8      -9.4227      1.00000
      9      -9.3820      1.00000
     10      -9.3698      1.00000
     11      -6.5790      1.00000
     12      -6.5790      1.00000
     13       0.1095      1.00000
     14       0.1095      1.00000
     15       3.1997      1.00000
     16       3.1997      1.00000
     17       3.4175      1.00000
     18       3.4282      1.00000
     19       5.4852     -0.00000
     20       5.4852     -0.00000
     21       8.6307      0.00000

 k-point     4 :       0.4286    0.0000    0.0000
  band No.  band energies     occupation 
      1     -10.2992      1.00000
      2     -10.2992      1.00000
      3     -10.2679      1.00000
      4     -10.2635      1.00000
      5      -9.5012      1.00000
      6      -9.5012      1.00000
      7      -9.4325      1.00000
      8      -9.4325      1.00000
      9      -9.3666      1.00000
     10      -9.3612      1.00000
     11      -6.0041      1.00000
     12      -6.0041      1.00000
     13      -1.2479      1.00000
     14      -1.2479      1.00000
     15       2.9083      1.00000
     16       2.9083      1.00000
     17       3.1317      1.00000
     18       3.1361      1.00000
     19       5.3331     -0.00000
     20       5.3331     -0.00000
     21       8.6887      0.00000

 k-point     5 :      -0.4286    0.0000    0.0000
  band No.  band energies     occupation 
      1     -10.2992      1.00000
      2     -10.2992      1.00000
      3     -10.2679      1.00000
      4     -10.2635      1.00000
      5      -9.5012      1.00000
      6      -9.5012      1.00000
      7      -9.4325      1.00000
      8      -9.4325      1.00000
      9      -9.3666      1.00000
     10      -9.3612      1.00000
     11      -6.0041      1.00000
     12      -6.0041      1.00000
     13      -1.2479      1.00000
     14      -1.2479      1.00000
     15       2.9083      1.00000
     16       2.9083      1.00000
     17       3.1317      1.00000
     18       3.1361      1.00000
     19       5.3331     -0.00000
     20       5.3331     -0.00000
     21       8.7153      0.00000

 k-point     6 :      -0.2857    0.0000    0.0000
  band No.  band energies     occupation 
      1     -10.2889      1.00000
      2     -10.2889      1.00000
      3     -10.2730      1.00000
      4     -10.2632      1.00000
      5      -9.4957      1.00000
      6      -9.4957      1.00000
      7      -9.4227      1.00000
      8      -9.4227      1.00000
      9      -9.3820      1.00000
     10      -9.3698      1.00000
     11      -6.5790      1.00000
     12      -6.5790      1.00000
     13       0.1095      1.00000
     14       0.1095      1.00000
     15       3.1997      1.00000
     16       3.1997      1.00000
     17       3.4175      1.00000
     18       3.4282      1.00000
     19       5.4852     -0.00000
     20       5.4852     -0.00000
     21       8.6407      0.00000

 k-point     7 :      -0.1429    0.0000    0.0000
[...]
  0.000   0.000   0.001   0.000   0.000   0.000   0.000   0.000  -0.000   0.000   0.000   0.000  -0.001   0.000   0.000   0.000
  0.000   0.000   0.000   0.000   0.000   0.000   0.001   0.000   0.000   0.000   0.000   0.000   0.000   0.000   0.000   0.000
  0.001   0.000   0.000   0.000  -0.000   0.000   0.000   0.000  -0.000   0.000  -0.002   0.000   0.000   0.000  -0.000   0.000
  0.000   0.000   0.001   0.000   0.000   0.000   0.000   0.000  -0.000   0.000   0.000   0.000  -0.002   0.000   0.000   0.000
 total augmentation occupancy for first ion, spin component:           1
  1.999   0.000   0.000   0.000  -0.000   0.010  -0.000   0.000   0.000   0.000   0.000   0.000   0.000  -0.088  -0.000   0.000
  0.000   1.999   0.000   0.000   0.000   0.000   0.010  -0.000  -0.000  -0.000   0.000  -0.000   0.000  -0.000  -0.088  -0.000
  0.000   0.000   1.998  -0.000   0.000   0.000   0.000   0.005  -0.000   0.000  -0.000   0.000   0.000  -0.000   0.000  -0.000
  0.000   0.000  -0.000   1.999   0.000   0.000   0.000  -0.000   0.010  -0.000   0.000   0.000  -0.088   0.000   0.000   0.051
  0.000   0.000   0.000   0.000   1.998  -0.000  -0.000   0.000  -0.000   0.005  -0.000   0.000  -0.000   0.000  -0.000   0.000
  0.010  -0.000   0.000   0.000   0.000   0.035   0.000  -0.000   0.000  -0.000   0.000   0.000  -0.000  -0.634   0.000  -0.000
  0.000   0.010   0.000  -0.000  -0.000  -0.000   0.035   0.000  -0.000  -0.000   0.000  -0.000   0.000  -0.000  -0.634  -0.000
 -0.000   0.000   0.005  -0.000   0.000   0.000   0.000   0.010   0.000   0.000   0.000   0.000   0.000  -0.000  -0.000   0.000
  0.000   0.000   0.000   0.010   0.000   0.000  -0.000   0.000   0.035   0.000   0.000  -0.000  -0.634   0.000   0.000   0.254
 -0.000   0.000   0.000  -0.000   0.005  -0.000   0.000   0.000   0.000   0.010   0.000   0.000  -0.000   0.000   0.000  -0.000
 -0.000   0.000  -0.000   0.000   0.000   0.000   0.000   0.000   0.000   0.000   6.809  -3.166  -0.000  -0.000  -0.000   0.000
  0.000   0.000  -0.000   0.000   0.000   0.000   0.000   0.000  -0.000   0.000  -3.166   1.624  -0.000   0.000   0.000   0.000
 -0.000   0.000  -0.000  -0.088  -0.000  -0.000   0.000   0.000  -0.634  -0.000   0.000  -0.000  19.483  -0.000   0.000  -7.812
 -0.088  -0.000   0.000  -0.000   0.000  -0.634  -0.000   0.000   0.000  -0.000   0.000   0.000  -0.000  19.483   0.000   0.000
 -0.000  -0.088  -0.000   0.000  -0.000  -0.000  -0.634  -0.000   0.000   0.000   0.000   0.000  -0.000   0.000  19.483   0.000
  0.000  -0.000   0.000   0.051  -0.000   0.000   0.000  -0.000   0.254   0.000   0.000  -0.000  -7.812  -0.000   0.000   3.137
  0.051  -0.000   0.000   0.000  -0.000   0.254  -0.000   0.000   0.000  -0.000   0.000  -0.000   0.000  -7.812   0.000   0.000
 -0.000   0.051   0.000  -0.000  -0.000   0.000   0.254   0.000   0.000   0.000   0.000   0.000  -0.000  -0.000  -7.812  -0.000
 total augmentation occupancy for first ion, spin component:           2
  0.000   0.000   0.000  -0.000  -0.000  -0.000   0.000  -0.000  -0.000  -0.000  -0.000   0.000  -0.000   0.000   0.000   0.000
  0.000  -0.000   0.000   0.000   0.000   0.000   0.000   0.000   0.000   0.000   0.000   0.000  -0.000  -0.000   0.000  -0.000
  0.000   0.000   0.000  -0.000   0.000   0.000   0.000   0.000   0.000   0.000   0.000  -0.000   0.000  -0.000   0.000   0.000
  0.000   0.000   0.000   0.000   0.000   0.000  -0.000  -0.000   0.000  -0.000  -0.000  -0.000   0.000   0.000   0.000   0.000
  0.000   0.000  -0.000  -0.000  -0.000   0.000   0.000   0.000   0.000  -0.000   0.000  -0.000   0.000  -0.000   0.000   0.000
 -0.000   0.000   0.000   0.000  -0.000   0.000   0.000   0.000  -0.000  -0.000  -0.000  -0.000   0.000  -0.000   0.000  -0.000
 -0.000  -0.000   0.000   0.000   0.000   0.000   0.000   0.000  -0.000   0.000   0.000   0.000  -0.000   0.000  -0.000  -0.000
  0.000   0.000   0.000   0.000  -0.000  -0.000   0.000  -0.000  -0.000  -0.000   0.000  -0.000  -0.000   0.000  -0.000   0.000
 -0.000  -0.000   0.000   0.000  -0.000   0.000  -0.000  -0.000   0.000  -0.000  -0.000   0.000   0.000  -0.000  -0.000  -0.000
  0.000   0.000   0.000   0.000   0.000   0.000   0.000  -0.000  -0.000  -0.000   0.000   0.000  -0.000  -0.000  -0.000   0.000
 -0.000   0.000   0.000  -0.000  -0.000  -0.000   0.000   0.000   0.000   0.000  -0.000   0.000   0.000   0.000   0.000   0.000
 -0.000   0.000  -0.000  -0.000   0.000   0.000   0.000  -0.000   0.000  -0.000   0.000   0.000  -0.000  -0.000   0.000   0.000
 -0.000   0.000   0.000   0.000   0.000   0.000  -0.000   0.000  -0.000  -0.000  -0.000  -0.000  -0.000  -0.000   0.000   0.000
  0.000   0.000  -0.000   0.000  -0.000   0.000  -0.000   0.000  -0.000   0.000   0.000  -0.000   0.000  -0.000   0.000  -0.000
 -0.000   0.000   0.000  -0.000   0.000   0.000  -0.000  -0.000   0.000  -0.000   0.000   0.000  -0.000   0.000  -0.000   0.000
  0.000   0.000  -0.000   0.000   0.000  -0.000   0.000   0.000   0.000   0.000  -0.000   0.000   0.000  -0.000   0.000  -0.000
  0.000   0.000   0.000  -0.000   0.000  -0.000   0.000   0.000   0.000  -0.000  -0.000  -0.000   0.000  -0.000  -0.000   0.000
  0.000   0.000  -0.000  -0.000  -0.000   0.000   0.000   0.000   0.000   0.000   0.000   0.000  -0.000   0.000   0.000   0.000
 total augmentation occupancy for first ion, spin component:           3
  0.000   0.000  -0.000   0.000   0.000  -0.000   0.000   0.000   0.000   0.000   0.000  -0.000  -0.000   0.000   0.000  -0.000
 -0.000   0.000  -0.000   0.000   0.000  -0.000   0.000   0.000   0.000  -0.000   0.000   0.000  -0.000  -0.000  -0.000   0.000
  0.000  -0.000   0.000  -0.000   0.000  -0.000   0.000   0.000  -0.000   0.000   0.000  -0.000  -0.000  -0.000   0.000   0.000
 -0.000  -0.000  -0.000   0.000   0.000   0.000   0.000  -0.000   0.000   0.000   0.000   0.000   0.000   0.000   0.000   0.000
  0.000   0.000  -0.000   0.000   0.000  -0.000  -0.000   0.000   0.000   0.000  -0.000  -0.000   0.000   0.000   0.000  -0.000
  0.000  -0.000   0.000  -0.000  -0.000  -0.000   0.000   0.000  -0.000   0.000  -0.000   0.000  -0.000   0.000  -0.000  -0.000
  0.000  -0.000   0.000  -0.000   0.000  -0.000   0.000   0.000  -0.000   0.000   0.000   0.000   0.000   0.000   0.000  -0.000
  0.000   0.000  -0.000  -0.000  -0.000   0.000  -0.000   0.000  -0.000  -0.000   0.000  -0.000   0.000   0.000   0.000  -0.000
 -0.000   0.000  -0.000   0.000   0.000   0.000  -0.000  -0.000   0.000   0.000   0.000   0.000   0.000   0.000  -0.000   0.000
  0.000   0.000  -0.000   0.000  -0.000   0.000  -0.000  -0.000   0.000   0.000   0.000   0.000  -0.000  -0.000   0.000   0.000
 -0.000   0.000   0.000   0.000  -0.000   0.000  -0.000   0.000   0.000   0.000  -0.000   0.000   0.000   0.000  -0.000   0.000
 -0.000   0.000   0.000   0.000   0.000  -0.000  -0.000   0.000   0.000  -0.000   0.000   0.000   0.000  -0.000  -0.000   0.000
 -0.000   0.000  -0.000   0.000   0.000  -0.000   0.000   0.000  -0.000  -0.000   0.000   0.000  -0.000   0.000  -0.000   0.000
  0.000  -0.000  -0.000   0.000   0.000   0.000   0.000  -0.000   0.000   0.000   0.000   0.000  -0.000  -0.000  -0.000   0.000
  0.000  -0.000  -0.000   0.000   0.000  -0.000   0.000  -0.000   0.000  -0.000   0.000  -0.000   0.000   0.000   0.000  -0.000
 -0.000   0.000   0.000   0.000  -0.000   0.000  -0.000  -0.000   0.000   0.000   0.000   0.000   0.000   0.000   0.000   0.000
 -0.000   0.000  -0.000  -0.000   0.000  -0.000  -0.000   0.000   0.000   0.000  -0.000  -0.000  -0.000   0.000  -0.000  -0.000
 -0.000  -0.000  -0.000   0.000  -0.000   0.000  -0.000   0.000   0.000   0.000  -0.000   0.000   0.000   0.000  -0.000   0.000
 total augmentation occupancy for first ion, spin component:           4
 -0.000   0.000   0.000  -0.000  -0.000   0.000  -0.000   0.000   0.000  -0.000   0.000   0.000  -0.000  -0.000  -0.000  -0.000
  0.000   0.000   0.000   0.000  -0.000   0.000   0.000  -0.000   0.000   0.000  -0.000   0.000   0.000   0.000   0.000  -0.000
  0.000   0.000  -0.000   0.000  -0.000   0.000   0.000   0.000  -0.000   0.000  -0.000   0.000   0.000   0.000  -0.000   0.000
  0.000  -0.000   0.000   0.000  -0.000   0.000  -0.000   0.000  -0.000  -0.000   0.000  -0.000  -0.000   0.000  -0.000  -0.000
 -0.000   0.000  -0.000   0.000   0.000  -0.000  -0.000   0.000  -0.000  -0.000   0.000   0.000   0.000  -0.000   0.000   0.000
  0.000   0.000   0.000  -0.000  -0.000  -0.000   0.000   0.000   0.000  -0.000   0.000   0.000   0.000  -0.000   0.000  -0.000
 -0.000  -0.000   0.000  -0.000   0.000   0.000  -0.000   0.000   0.000   0.000  -0.000  -0.000  -0.000   0.000   0.000   0.000
 -0.000   0.000   0.000   0.000  -0.000   0.000   0.000  -0.000  -0.000  -0.000   0.000  -0.000  -0.000   0.000  -0.000   0.000
 -0.000   0.000   0.000  -0.000   0.000   0.000  -0.000   0.000   0.000  -0.000   0.000   0.000  -0.000   0.000   0.000   0.000
 -0.000   0.000  -0.000   0.000   0.000  -0.000  -0.000  -0.000  -0.000  -0.000   0.000   0.000   0.000   0.000  -0.000  -0.000
  0.000  -0.000   0.000  -0.000   0.000   0.000   0.000   0.000   0.000   0.000  -0.000   0.000  -0.000   0.000   0.000   0.000
  0.000   0.000   0.000   0.000   0.000   0.000   0.000   0.000   0.000  -0.000  -0.000   0.000   0.000   0.000   0.000   0.000
  0.000   0.000   0.000   0.000   0.000  -0.000  -0.000  -0.000   0.000  -0.000  -0.000   0.000  -0.000   0.000   0.000   0.000
 -0.000   0.000   0.000  -0.000  -0.000   0.000  -0.000   0.000   0.000   0.000   0.000   0.000   0.000  -0.000  -0.000   0.000
 -0.000  -0.000  -0.000  -0.000  -0.000  -0.000  -0.000   0.000   0.000   0.000  -0.000  -0.000  -0.000   0.000  -0.000   0.000
  0.000  -0.000   0.000   0.000   0.000   0.000   0.000   0.000   0.000   0.000   0.000  -0.000   0.000   0.000   0.000   0.000
  0.000  -0.000   0.000   0.000   0.000  -0.000  -0.000   0.000  -0.000  -0.000   0.000   0.000  -0.000  -0.000   0.000   0.000
  0.000  -0.000   0.000   0.000  -0.000   0.000   0.000   0.000  -0.000   0.000   0.000   0.000  -0.000   0.000   0.000  -0.000


------------------------ aborting loop because EDIFF is reached ----------------------------------------


 


 total charge     
 
# of ion       s       p       d       tot
------------------------------------------
    1        0.814   1.171   9.881  11.866
    2        1.197   1.640   0.022   2.859
--------------------------------------------------
tot          2.011   2.811   9.903  14.725
 


 magnetization (x)
 
# of ion       s       p       d       tot
------------------------------------------
    1        0.002  -0.002   0.000  -0.000
    2       -0.001   0.003  -0.000   0.002
--------------------------------------------------
tot          0.001   0.001   0.000   0.002
 


 magnetization (y)
 
# of ion       s       p       d       tot
------------------------------------------
    1        0.004  -0.003   0.000   0.001
    2       -0.002   0.006  -0.000   0.004
--------------------------------------------------
tot          0.002   0.003   0.000   0.005
 


 magnetization (z)
 
# of ion       s       p       d       tot
------------------------------------------
    1       -0.000   0.000  -0.000   0.000
    2        0.000   0.000   0.000   0.000
--------------------------------------------------
tot         -0.000   0.000  -0.000   0.000
 
    FORLOC:  cpu time    0.0008: real time    0.0008
    FORNL :  cpu time    0.0134: real time    0.0135
    STRESS:  cpu time    0.0589: real time    0.0594
    FORCOR:  cpu time    0.0188: real time    0.0189
    OFIELD:  cpu time    0.0003: real time    0.0003

  FORCE on cell =-STRESS in cart. coord.  units (eV):
  Direction    XX          YY          ZZ          XY          YZ          ZX
  --------------------------------------------------------------------------------------
  Alpha Z    38.22227    38.22227    38.22227
  Ewald    -393.64871  -393.64871  -393.64871    -0.00000    -0.00000     0.00000
  Hartree   190.78111   190.78111   190.78111     0.00000     0.00000     0.00000
  E(xc)     -85.29358   -85.29358   -85.29358     0.00001     0.00001     0.00001
  Local    -134.48377  -134.48377  -134.48377     0.00014     0.00014     0.00014
  n-local    77.00738    77.62770    73.90132     1.57571    -0.48725     0.17824
  augment   158.53091   158.53091   158.53091    -0.00009    -0.00009    -0.00009
  Kinetic   150.52646   150.14424   145.70522     3.51438    -0.89223     0.52807
  Fock        0.00000     0.00000     0.00000     0.00000     0.00000     0.00000
  -------------------------------------------------------------------------------------
  Total      -0.92099    -0.92099    -0.92099    -0.00000    -0.00000     0.00000
  in kB     -26.54316   -26.54316   -26.54316    -0.00000    -0.00000     0.00000
  external pressure =      -26.54 kB  Pullay stress =        0.00 kB


 VOLUME and BASIS-vectors are now :
 -----------------------------------------------------------------------------
  energy-cutoff  :      400.00
  volume of cell :       55.59
      direct lattice vectors                 reciprocal lattice vectors
     0.000000000  3.029200000  3.029200000    -0.165060082  0.165060082  0.165060082
     3.029200000  0.000000000  3.029200000     0.165060082 -0.165060082  0.165060082
     3.029200000  3.029200000  0.000000000     0.165060082  0.165060082 -0.165060082

  length of vectors
     4.283935723  4.283935723  4.283935723     0.285892448  0.285892448  0.285892448


 FORCES acting on ions:
    Electron-Ion                     Ewald-Force                    Non-Local-Force
 -----------------------------------------------------------------------------------------------
   -.461E-06 -.461E-06 -.461E-06   -.172E-13 -.156E-13 -.147E-13   -.333E-15 -.319E-15 -.298E-15
   0.542E-07 0.542E-07 0.542E-07   0.168E-13 0.159E-13 0.132E-13   0.694E-16 0.486E-16 0.625E-16
 -----------------------------------------------------------------------------------------------
   -.272E-06 -.272E-06 -.272E-06   -.333E-15 0.285E-15 -.153E-14   -.264E-15 -.271E-15 -.236E-15
 
 
 POSITION                                       TOTAL-FORCE (eV/Angst)
 -----------------------------------------------------------------------------------
      0.00000      0.00000      0.00000        -0.000000     -0.000000     -0.000000
      4.54380      4.54380      4.54380         0.000000      0.000000      0.000000
 -----------------------------------------------------------------------------------
    total drift:                               -0.000000     -0.000000     -0.000000


--------------------------------------------------------------------------------------------------------



  FREE ENERGIE OF THE ION-ELECTRON SYSTEM (eV)
  ---------------------------------------------------
  free  energy   TOTEN  =       -11.59623955 eV

  energy  without entropy=      -11.59625243  energy(sigma->0) =      -11.59624384
 


--------------------------------------------------------------------------------------------------------


    POTLOK:  cpu time    0.0294: real time    0.0296


--------------------------------------------------------------------------------------------------------


 writing wavefunctions
     LOOP+:  cpu time    2.2593: real time    2.5712
    4ORBIT:  cpu time    0.0000: real time    0.0000

 Spin-Orbit-Coupling matrix elements

 Ion:    1  E_soc:     -0.0748476
 l=   1
     0.0000000    -0.0059961    -0.0059961
    -0.0059961     0.0000000    -0.0059961
    -0.0059961    -0.0059961     0.0000000
 l=   2
     0.0000000    -0.0013188     0.0000000    -0.0013188    -0.0051598
    -0.0013188     0.0000000    -0.0038698    -0.0013188    -0.0012899
     0.0000000    -0.0038698     0.0000000    -0.0038698     0.0000000
    -0.0013188    -0.0013188    -0.0038698     0.0000000    -0.0012899
    -0.0051598    -0.0012899     0.0000000    -0.0012899     0.0000000
 l=   3
     0.0000000     0.0000000     0.0000000     0.0000000     0.0000000     0.0000000     0.0000000
     0.0000000     0.0000000     0.0000000     0.0000000     0.0000000     0.0000000     0.0000000
     0.0000000     0.0000000     0.0000000     0.0000000     0.0000000     0.0000000     0.0000000
     0.0000000     0.0000000     0.0000000     0.0000000     0.0000000     0.0000000     0.0000000
     0.0000000     0.0000000     0.0000000     0.0000000     0.0000000     0.0000000     0.0000000
     0.0000000     0.0000000     0.0000000     0.0000000     0.0000000     0.0000000     0.0000000
     0.0000000     0.0000000     0.0000000     0.0000000     0.0000000     0.0000000     0.0000000

 Ion:    2  E_soc:     -0.0242588
 l=   1
     0.0000000    -0.0040408    -0.0040408
    -0.0040408     0.0000000    -0.0040408
    -0.0040408    -0.0040408     0.0000000
 l=   2
     0.0000000    -0.0000013     0.0000000    -0.0000013    -0.0000011
    -0.0000013     0.0000000    -0.0000008    -0.0000013    -0.0000003
     0.0000000    -0.0000008     0.0000000    -0.0000008     0.0000000
    -0.0000013    -0.0000013    -0.0000008     0.0000000    -0.0000003
    -0.0000011    -0.0000003     0.0000000    -0.0000003     0.0000000
 l=   3
     0.0000000     0.0000000     0.0000000     0.0000000     0.0000000     0.0000000     0.0000000
     0.0000000     0.0000000     0.0000000     0.0000000     0.0000000     0.0000000     0.0000000
     0.0000000     0.0000000     0.0000000     0.0000000     0.0000000     0.0000000     0.0000000
     0.0000000     0.0000000     0.0000000     0.0000000     0.0000000     0.0000000     0.0000000
     0.0000000     0.0000000     0.0000000     0.0000000     0.0000000     0.0000000     0.0000000
     0.0000000     0.0000000     0.0000000     0.0000000     0.0000000     0.0000000     0.0000000
     0.0000000     0.0000000     0.0000000     0.0000000     0.0000000     0.0000000     0.0000000
 


 total charge     
 
# of ion       s       p       d       tot
------------------------------------------
    1        0.814   1.171   9.881  11.866
    2        1.197   1.640   0.022   2.859
--------------------------------------------------
tot          2.011   2.811   9.903  14.725
 


 magnetization (x)
 
# of ion       s       p       d       tot
------------------------------------------
    1        0.002  -0.002   0.000  -0.000
    2       -0.001   0.003  -0.000   0.002
--------------------------------------------------
tot          0.001   0.001   0.000   0.002
 


 magnetization (y)
 
# of ion       s       p       d       tot
------------------------------------------
    1        0.004  -0.003   0.000   0.001
    2       -0.002   0.006  -0.000   0.004
--------------------------------------------------
tot          0.002   0.003   0.000   0.005
 


 magnetization (z)
 
# of ion       s       p       d       tot
------------------------------------------
    1       -0.000   0.000  -0.000   0.000
    2        0.000   0.000   0.000   0.000
--------------------------------------------------
tot         -0.000   0.000  -0.000   0.000
 

 total amount of memory used by VASP MPI-rank0    45585. kBytes
=======================================================================

   base      :      30000. kBytes
   nonl-proj :       3069. kBytes
   fftplans  :       1050. kBytes
   grid      :       3907. kBytes
   one-center:         62. kBytes
   wavefun   :       7497. kBytes
 
  
  
 General timing and accounting informations for this job:
 ========================================================
  
                  Total CPU time used (sec):        3.925
                            User time (sec):        3.064
                          System time (sec):        0.861
                         Elapsed time (sec):        6.733
  
                   Maximum memory used (kb):      182100.
                   Average memory used (kb):           0.
  
                          Minor page faults:        20740
                          Major page faults:           52
                 Voluntary context switches:         3321
