PROCAR lm decomposed
# of k-points:   30         # of bands:   21         # of ions:    2

 k-point     1 :    0.00000000 0.00000000 0.00000000     weight = 0.00291545

band     1 # energy  -10.27314586 # occ.  1.00000000
 
ion      s     py     pz     px    dxy    dyz    dz2    dxz  x2-y2    tot
    1  0.000  0.000  0.000  0.000  0.215  0.215  0.164  0.215  0.164  0.973
    2  0.000  0.001  0.001  0.001  0.000  0.000  0.000  0.000  0.000  0.004
tot    0.000  0.001  0.001  0.001  0.215  0.215  0.164  0.215  0.164  0.976
    1  0.000 -0.000 -0.000 -0.000 -0.209 -0.049 -0.074 -0.007  0.159 -0.180
    2 -0.000 -0.000 -0.001 -0.000 -0.000 -0.000 -0.000 -0.000  0.000 -0.001
tot    0.000 -0.000 -0.001 -0.000 -0.209 -0.049 -0.074 -0.007  0.159 -0.181
    1  0.000  0.000  0.000 -0.000  0.049 -0.007  0.122  0.209 -0.037  0.336
    2 -0.000  0.001  0.000 -0.000  0.000 -0.000  0.000  0.000 -0.000  0.001
tot    0.000  0.001  0.000 -0.000  0.049 -0.007  0.122  0.210 -0.037  0.338
    1 -0.000  0.000  0.000 -0.000  0.007 -0.209  0.080  0.048  0.005 -0.069
    2 -0.000  0.000  0.000 -0.001  0.000 -0.000  0.000  0.000  0.000 -0.001
tot   -0.000  0.000  0.000 -0.001  0.007 -0.210  0.080  0.048  0.005 -0.070
 
band     2 # energy  -10.27314584 # occ.  1.00000000
 
ion      s     py     pz     px    dxy    dyz    dz2    dxz  x2-y2    tot
    1  0.000  0.000  0.000  0.000  0.215  0.215  0.164  0.215  0.164  0.973
    2  0.000  0.001  0.001  0.001  0.000  0.000  0.000  0.000  0.000  0.004
tot    0.000  0.001  0.001  0.001  0.215  0.215  0.164  0.215  0.164  0.976
    1 -0.000  0.000  0.000  0.000  0.209  0.049  0.075  0.007 -0.159  0.180
    2  0.000  0.000  0.001  0.000  0.000  0.000  0.000  0.000 -0.000  0.001
tot   -0.000  0.000  0.001  0.000  0.209  0.049  0.075  0.007 -0.159  0.182
    1 -0.000 -0.000 -0.000  0.000 -0.048  0.006 -0.122 -0.210  0.037 -0.337
    2  0.000 -0.001 -0.000  0.000 -0.000  0.000 -0.000 -0.000  0.000 -0.001
tot   -0.000 -0.001 -0.000  0.000 -0.048  0.006 -0.122 -0.210  0.037 -0.338
    1  0.000 -0.000 -0.000  0.000 -0.007  0.209 -0.080 -0.048 -0.005  0.069
    2  0.000 -0.000 -0.000  0.001 -0.000  0.000 -0.000 -0.000 -0.000  0.001
tot    0.000 -0.000 -0.000  0.001 -0.007  0.209 -0.080 -0.048 -0.005  0.070
 
band     3 # energy  -10.27313827 # occ.  1.00000000
 
ion      s     py     pz     px    dxy    dyz    dz2    dxz  x2-y2    tot
    1  0.000  0.000  0.000  0.000  0.215  0.215  0.164  0.215  0.164  0.973
    2  0.000  0.001  0.001  0.001  0.000  0.000  0.000  0.000  0.000  0.004
tot    0.000  0.001  0.001  0.001  0.215  0.215  0.164  0.215  0.164  0.976
    1  0.000  0.000 -0.000 -0.000 -0.127 -0.173 -0.127  0.014  0.097 -0.317
    2 -0.000  0.000 -0.001 -0.001 -0.000 -0.000 -0.000  0.000  0.000 -0.002
tot    0.000  0.000 -0.001 -0.001 -0.127 -0.173 -0.127  0.014  0.097 -0.319
    1  0.000 -0.000  0.000 -0.000  0.014 -0.127 -0.020 -0.173 -0.010 -0.317
    2  0.000 -0.001  0.000 -0.001  0.000 -0.000 -0.000 -0.000 -0.000 -0.002
tot    0.000 -0.001  0.000 -0.001  0.014 -0.127 -0.020 -0.173 -0.010 -0.318
    1 -0.000 -0.000 -0.000  0.000 -0.173  0.014  0.101 -0.127 -0.132 -0.316
    2  0.000 -0.001 -0.001  0.000 -0.000  0.000  0.000 -0.000 -0.000 -0.002
tot   -0.000 -0.001 -0.001  0.000 -0.173  0.014  0.101 -0.127 -0.132 -0.318
 
band     4 # energy  -10.27313827 # occ.  1.00000000
 
ion      s     py     pz     px    dxy    dyz    dz2    dxz  x2-y2    tot
    1  0.000  0.000  0.000  0.000  0.215  0.215  0.164  0.215  0.164  0.973
    2  0.000  0.001  0.001  0.001  0.000  0.000  0.000  0.000  0.000  0.004
tot    0.000  0.001  0.001  0.001  0.215  0.215  0.164  0.215  0.164  0.976
    1 -0.000 -0.000  0.000  0.000  0.127  0.173  0.127 -0.014 -0.097  0.316
    2 -0.000 -0.000  0.001  0.001  0.000  0.000  0.000 -0.000 -0.000  0.002
tot   -0.000 -0.000  0.001  0.001  0.127  0.173  0.127 -0.014 -0.097  0.318
    1 -0.000  0.000 -0.000  0.000 -0.014  0.127  0.020  0.173  0.011  0.317
    2 -0.000  0.001 -0.000  0.001 -0.000  0.000  0.000  0.000  0.000  0.002
tot   -0.000  0.001 -0.000  0.001 -0.014  0.127  0.020  0.173  0.011  0.319
    1  0.000  0.000  0.000 -0.000  0.173 -0.014 -0.101  0.126  0.132  0.316
    2 -0.000  0.001  0.001 -0.000  0.000 -0.000 -0.000  0.000  0.000  0.002
tot    0.000  0.001  0.001 -0.000  0.173 -0.014 -0.101  0.126  0.132  0.318
 
band     5 # energy   -9.48227653 # occ.  1.00000000
 
ion      s     py     pz     px    dxy    dyz    dz2    dxz  x2-y2    tot
    1  0.000  0.000  0.000  0.000  0.322  0.322  0.000  0.322  0.000  0.967
    2  0.000  0.002  0.002  0.002  0.000  0.000  0.000  0.000  0.000  0.007
tot    0.000  0.002  0.002  0.002  0.322  0.322  0.000  0.322  0.000  0.974
    1  0.000  0.000  0.000 -0.000  0.305 -0.305  0.000  0.305  0.000  0.305
    2 -0.000  0.002  0.002 -0.002  0.000 -0.000  0.000  0.000  0.000  0.002
tot    0.000  0.002  0.002 -0.002  0.305 -0.305  0.000  0.305  0.000  0.307
    1 -0.000 -0.000  0.000  0.000  0.042  0.041 -0.000 -0.042  0.000  0.042
    2 -0.000 -0.000  0.000  0.000  0.000  0.000 -0.000 -0.000  0.000  0.000
tot   -0.000 -0.000  0.000  0.000  0.042  0.042 -0.000 -0.042  0.000  0.042
    1  0.000 -0.000  0.000 -0.000  0.095 -0.095  0.000 -0.095 -0.000 -0.095
    2 -0.000 -0.001  0.001 -0.001  0.000 -0.000  0.000 -0.000 -0.000 -0.001
tot    0.000 -0.001  0.001 -0.001  0.095 -0.095  0.000 -0.095 -0.000 -0.095
 
band     6 # energy   -9.48227652 # occ.  1.00000000
 
ion      s     py     pz     px    dxy    dyz    dz2    dxz  x2-y2    tot
    1  0.000  0.000  0.000  0.000  0.322  0.322  0.000  0.322  0.000  0.967
    2  0.000  0.002  0.002  0.002  0.000  0.000  0.000  0.000  0.000  0.007
tot    0.000  0.002  0.002  0.002  0.322  0.322  0.000  0.322  0.000  0.974
    1 -0.000 -0.000 -0.000  0.000 -0.305  0.305 -0.000 -0.305 -0.000 -0.305
    2 -0.000 -0.002 -0.002  0.002 -0.000  0.000 -0.000 -0.000 -0.000 -0.002
tot   -0.000 -0.002 -0.002  0.002 -0.305  0.305 -0.000 -0.305 -0.000 -0.307
    1  0.000  0.000 -0.000 -0.000 -0.042 -0.041  0.000  0.042 -0.000 -0.042
    2  0.000  0.000 -0.000 -0.000 -0.000 -0.000  0.000  0.000 -0.000 -0.000
tot    0.000  0.000 -0.000 -0.000 -0.042 -0.042  0.000  0.042 -0.000 -0.042
    1 -0.000  0.000 -0.000  0.000 -0.095  0.095 -0.000  0.095  0.000  0.095
    2 -0.000  0.001 -0.001  0.001 -0.000  0.000 -0.000  0.000  0.000  0.001
tot   -0.000  0.001 -0.001  0.001 -0.095  0.095 -0.000  0.095  0.000  0.095
 
band     7 # energy   -9.39634614 # occ.  1.00000000
 
ion      s     py     pz     px    dxy    dyz    dz2    dxz  x2-y2    tot
    1  0.000  0.000  0.000  0.000  0.107  0.108  0.327  0.108  0.325  0.976
    2  0.000  0.001  0.001  0.001  0.000  0.000  0.000  0.000  0.000  0.003
tot    0.000  0.001  0.001  0.001  0.107  0.108  0.327  0.108  0.326  0.978
    1 -0.000 -0.000 -0.000  0.000 -0.007  0.058  0.294 -0.091  0.021  0.275
    2 -0.000 -0.001 -0.000  0.000 -0.000  0.000  0.000 -0.000  0.000 -0.000
tot   -0.000 -0.001 -0.000  0.000 -0.007  0.058  0.294 -0.091  0.021  0.275
    1 -0.000  0.000 -0.000 -0.000 -0.090 -0.007  0.039  0.058  0.274  0.273
    2  0.000  0.000 -0.001 -0.000 -0.000 -0.000  0.000  0.000  0.000 -0.000
tot   -0.000  0.000 -0.001 -0.000 -0.090 -0.007  0.039  0.058  0.274  0.273
    1 -0.000 -0.000  0.000 -0.000  0.058 -0.091  0.139 -0.007  0.175  0.274
    2 -0.000 -0.000  0.000 -0.001  0.000 -0.000  0.000 -0.000  0.000 -0.000
tot   -0.000 -0.000  0.000 -0.001  0.058 -0.091  0.139 -0.007  0.175  0.273
 
band     8 # energy   -9.39634613 # occ.  1.00000000
 
ion      s     py     pz     px    dxy    dyz    dz2    dxz  x2-y2    tot
    1  0.000  0.000  0.000  0.000  0.108  0.107  0.327  0.108  0.326  0.976
    2  0.000  0.001  0.001  0.001  0.000  0.000  0.000  0.000  0.000  0.003
tot    0.000  0.001  0.001  0.001  0.108  0.108  0.327  0.108  0.326  0.978
    1 -0.000  0.000  0.000 -0.000  0.007 -0.058 -0.293  0.091 -0.020 -0.274
    2 -0.000  0.001  0.000 -0.000  0.000 -0.000 -0.000  0.000 -0.000  0.000
tot   -0.000  0.001  0.000 -0.000  0.007 -0.058 -0.293  0.091 -0.020 -0.274
    1  0.000 -0.000  0.000  0.000  0.091  0.007 -0.041 -0.058 -0.275 -0.276
    2  0.000 -0.000  0.001  0.000  0.000  0.000 -0.000 -0.000 -0.000  0.000
tot    0.000 -0.000  0.001  0.000  0.091  0.007 -0.041 -0.058 -0.275 -0.276
    1 -0.000  0.000 -0.000  0.000 -0.057  0.090 -0.138  0.007 -0.173 -0.272
    2 -0.000  0.000 -0.000  0.001 -0.000  0.000 -0.000  0.000 -0.000  0.000
tot   -0.000  0.000 -0.000  0.001 -0.057  0.090 -0.138  0.007 -0.173 -0.272
 
band     9 # energy   -9.39634144 # occ.  1.00000000
 
ion      s     py     pz     px    dxy    dyz    dz2    dxz  x2-y2    tot
    1  0.000  0.000  0.000  0.000  0.108  0.108  0.326  0.107  0.327  0.976
    2  0.000  0.001  0.001  0.001  0.000  0.000  0.000  0.000  0.000  0.003
tot    0.000  0.001  0.001  0.001  0.108  0.108  0.326  0.107  0.327  0.978
    1 -0.000  0.000  0.000 -0.000  0.066 -0.084 -0.132  0.014 -0.200 -0.336
    2 -0.000  0.000  0.000 -0.001  0.000 -0.000 -0.000  0.000 -0.000 -0.000
tot   -0.000  0.000  0.000 -0.001  0.066 -0.084 -0.132  0.014 -0.200 -0.336
    1  0.000 -0.000  0.000  0.000  0.084  0.014 -0.075 -0.066 -0.255 -0.298
    2  0.000 -0.000  0.001  0.000  0.000  0.000 -0.000 -0.000 -0.000  0.000
tot    0.000 -0.000  0.001  0.000  0.084  0.014 -0.075 -0.066 -0.255 -0.298
    1 -0.000  0.000 -0.000  0.000 -0.014  0.066 -0.288  0.084 -0.042 -0.195
    2  0.000  0.001 -0.000  0.000 -0.000  0.000 -0.000  0.000 -0.000  0.001
tot   -0.000  0.001 -0.000  0.000 -0.014  0.066 -0.289  0.084 -0.042 -0.194
 
band    10 # energy   -9.39634142 # occ.  1.00000000
 
ion      s     py     pz     px    dxy    dyz    dz2    dxz  x2-y2    tot
    1  0.000  0.000  0.000  0.000  0.108  0.108  0.325  0.108  0.327  0.976
    2  0.000  0.001  0.001  0.001  0.000  0.000  0.000  0.000  0.000  0.003
tot    0.000  0.001  0.001  0.001  0.108  0.108  0.326  0.108  0.327  0.978
    1  0.000 -0.000 -0.000  0.000 -0.066  0.084  0.131 -0.014  0.199  0.335
    2  0.000 -0.000 -0.000  0.001 -0.000  0.000  0.000 -0.000  0.000  0.000
tot    0.000 -0.000 -0.000  0.001 -0.066  0.084  0.132 -0.014  0.199  0.335
    1 -0.000  0.000 -0.000 -0.000 -0.085 -0.014  0.077  0.066  0.257  0.301
    2 -0.000  0.000 -0.001 -0.000 -0.000 -0.000  0.000  0.000  0.000 -0.000
tot   -0.000  0.000 -0.001 -0.000 -0.085 -0.014  0.077  0.066  0.257  0.300
    1  0.000 -0.000  0.000 -0.000  0.014 -0.065  0.288 -0.084  0.041  0.193
    2 -0.000 -0.001  0.000 -0.000  0.000 -0.000  0.000 -0.000  0.000 -0.001
tot    0.000 -0.001  0.000 -0.000  0.014 -0.065  0.288 -0.084  0.041  0.192
 
band    11 # energy   -7.31278524 # occ.  1.00000000
 
ion      s     py     pz     px    dxy    dyz    dz2    dxz  x2-y2    tot
    1  0.157  0.000  0.000  0.000  0.000  0.000  0.000  0.000  0.000  0.157
    2  0.450  0.000  0.000  0.000  0.000  0.000  0.000  0.000  0.000  0.450
tot    0.607  0.000  0.000  0.000  0.000  0.000  0.000  0.000  0.000  0.607
    1  0.003  0.000  0.000  0.000  0.000  0.000  0.000  0.000  0.000  0.003
    2  0.009  0.000 -0.000  0.000  0.000 -0.000 -0.000  0.000 -0.000  0.009
tot    0.013  0.000 -0.000  0.000  0.000  0.000  0.000  0.000  0.000  0.013
    1 -0.110  0.000 -0.000 -0.000 -0.000 -0.000 -0.000 -0.000  0.000 -0.110
    2 -0.315  0.000 -0.000 -0.000 -0.000 -0.000 -0.000 -0.000 -0.000 -0.315
tot   -0.424  0.000 -0.000 -0.000 -0.000 -0.000 -0.000 -0.000  0.000 -0.424
    1 -0.112 -0.000 -0.000  0.000  0.000 -0.000  0.000 -0.000  0.000 -0.112
    2 -0.321 -0.000  0.000 -0.000  0.000 -0.000  0.000 -0.000  0.000 -0.321
tot   -0.433 -0.000  0.000 -0.000  0.000 -0.000  0.000 -0.000  0.000 -0.433
 
band    12 # energy   -7.31278523 # occ.  1.00000000
 
ion      s     py     pz     px    dxy    dyz    dz2    dxz  x2-y2    tot
    1  0.157  0.000  0.000  0.000  0.000  0.000  0.000  0.000  0.000  0.157
    2  0.450  0.000  0.000  0.000  0.000  0.000  0.000  0.000  0.000  0.450
tot    0.607  0.000  0.000  0.000  0.000  0.000  0.000  0.000  0.000  0.607
    1 -0.003  0.000 -0.000  0.000 -0.000  0.000 -0.000  0.000  0.000 -0.003
    2 -0.009 -0.000 -0.000  0.000  0.000 -0.000  0.000  0.000  0.000 -0.009
tot   -0.013  0.000 -0.000  0.000 -0.000  0.000 -0.000  0.000  0.000 -0.013
    1  0.110  0.000  0.000  0.000  0.000  0.000 -0.000  0.000  0.000  0.110
    2  0.315  0.000  0.000  0.000  0.000  0.000  0.000  0.000  0.000  0.315
tot    0.424  0.000  0.000  0.000  0.000  0.000 -0.000  0.000  0.000  0.424
    1  0.112  0.000  0.000 -0.000  0.000 -0.000 -0.000  0.000  0.000  0.112
    2  0.321 -0.000  0.000 -0.000  0.000  0.000 -0.000  0.000  0.000  0.321
tot    0.433  0.000  0.000 -0.000  0.000 -0.000 -0.000  0.000  0.000  0.433
 
band    13 # energy    3.80709703 # occ.  1.00000000
 
ion      s     py     pz     px    dxy    dyz    dz2    dxz  x2-y2    tot
    1  0.000  0.046  0.046  0.046  0.019  0.019  0.000  0.019  0.000  0.193
    2  0.000  0.151  0.151  0.151  0.001  0.001  0.000  0.001  0.000  0.456
tot    0.000  0.197  0.197  0.197  0.020  0.020  0.000  0.020  0.000  0.650
    1  0.000 -0.006 -0.006  0.006 -0.002  0.002  0.000 -0.003 -0.000 -0.009
    2  0.000 -0.020 -0.020  0.020 -0.000  0.000  0.000 -0.000  0.000 -0.021
tot    0.000 -0.027 -0.026  0.026 -0.003  0.003  0.000 -0.003 -0.000 -0.030
    1  0.000 -0.036  0.036  0.036  0.015  0.015  0.000 -0.015 -0.000  0.051
    2  0.000 -0.119  0.119  0.119  0.001  0.001  0.000 -0.001 -0.000  0.120
tot    0.000 -0.156  0.155  0.155  0.015  0.015  0.000 -0.015 -0.000  0.170
    1 -0.000  0.028 -0.027  0.027 -0.011  0.011  0.000  0.011  0.000  0.039
    2 -0.000  0.091 -0.091  0.091 -0.001  0.001  0.000  0.001 -0.000  0.091
tot   -0.000  0.118 -0.118  0.118 -0.012  0.012  0.000  0.012 -0.000  0.130
 
band    14 # energy    3.80712996 # occ.  1.00000000
 
ion      s     py     pz     px    dxy    dyz    dz2    dxz  x2-y2    tot
    1  0.000  0.045  0.047  0.046  0.019  0.018  0.000  0.018  0.000  0.193
    2  0.000  0.149  0.154  0.150  0.001  0.001  0.000  0.001  0.000  0.456
tot    0.000  0.194  0.201  0.196  0.020  0.019  0.000  0.019  0.000  0.650
    1 -0.000  0.006  0.006 -0.006  0.002 -0.003  0.000  0.003  0.000  0.008
    2 -0.000  0.021  0.019 -0.021  0.000 -0.000  0.000  0.000  0.000  0.019
tot   -0.000  0.027  0.024 -0.027  0.002 -0.003  0.000  0.003  0.000  0.027
    1 -0.000  0.036 -0.037 -0.036 -0.015 -0.015  0.000  0.014  0.000 -0.052
    2 -0.000  0.117 -0.121 -0.119 -0.001 -0.001  0.000  0.001  0.000 -0.124
tot   -0.000  0.153 -0.158 -0.155 -0.016 -0.015  0.000  0.015  0.000 -0.176
    1 -0.000 -0.027  0.028 -0.027  0.011 -0.011 -0.000 -0.011  0.000 -0.036
    2 -0.000 -0.090  0.093 -0.089  0.001 -0.001 -0.000 -0.001  0.000 -0.086
tot   -0.000 -0.117  0.121 -0.116  0.012 -0.012 -0.000 -0.012  0.000 -0.122
 
band    15 # energy    4.12672554 # occ.  1.00168421
 
ion      s     py     pz     px    dxy    dyz    dz2    dxz  x2-y2    tot
    1  0.000  0.035  0.014  0.079  0.006  0.035  0.000  0.016  0.000  0.186
    2  0.000  0.125  0.051  0.280  0.000  0.002  0.000  0.001  0.000  0.459
tot    0.000  0.160  0.066  0.359  0.007  0.037  0.000  0.016  0.000  0.645
    1 -0.000 -0.025  0.009  0.016  0.004  0.007  0.000 -0.011 -0.000  0.000
    2 -0.000 -0.087  0.030  0.057  0.000  0.000  0.000 -0.001 -0.000  0.000
tot   -0.000 -0.112  0.039  0.074  0.004  0.008  0.000 -0.012 -0.000  0.000
    1 -0.000  0.011 -0.001 -0.037 -0.000 -0.016  0.000  0.005  0.000 -0.039
    2 -0.000  0.038 -0.004 -0.130 -0.000 -0.001  0.000  0.000  0.000 -0.096
tot   -0.000  0.048 -0.005 -0.166 -0.001 -0.017  0.000  0.005  0.000 -0.136
    1 -0.000 -0.023  0.012 -0.068  0.005 -0.030  0.000 -0.010  0.000 -0.115
    2 -0.000 -0.081  0.041 -0.241  0.000 -0.001  0.000 -0.000  0.000 -0.283
tot   -0.000 -0.104  0.053 -0.309  0.005 -0.032  0.000 -0.011  0.000 -0.398
 
band    16 # energy    4.12672577 # occ.  1.00170156
 
ion      s     py     pz     px    dxy    dyz    dz2    dxz  x2-y2    tot
    1  0.000  0.016  0.070  0.043  0.031  0.019  0.000  0.007  0.000  0.186
    2  0.000  0.056  0.247  0.153  0.001  0.001  0.000  0.000  0.000  0.459
tot    0.000  0.072  0.316  0.197  0.032  0.020  0.000  0.007  0.000  0.645
    1 -0.000  0.003  0.032 -0.002  0.014 -0.001  0.000  0.002 -0.000  0.048
    2 -0.000  0.012  0.112 -0.007  0.001 -0.000  0.000  0.000 -0.000  0.119
tot   -0.000  0.016  0.144 -0.008  0.015 -0.001  0.000  0.002 -0.000  0.167
    1 -0.000  0.011  0.004  0.012  0.002  0.005  0.000  0.005 -0.000  0.038
    2 -0.000  0.038  0.013  0.042  0.000  0.000  0.000  0.000 -0.000  0.094
tot   -0.000  0.048  0.017  0.054  0.002  0.006  0.000  0.005 -0.000  0.132
    1 -0.000  0.011 -0.062  0.042 -0.028  0.019 -0.000  0.005 -0.000 -0.013
    2 -0.000  0.040 -0.219  0.147 -0.001  0.001 -0.000  0.000 -0.000 -0.033
tot   -0.000  0.051 -0.281  0.189 -0.029  0.019 -0.000  0.005 -0.000 -0.046
 
band    17 # energy    4.12672629 # occ.  1.00185671
 
ion      s     py     pz     px    dxy    dyz    dz2    dxz  x2-y2    tot
    1  0.000  0.076  0.014  0.039  0.006  0.017  0.000  0.034  0.000  0.186
    2  0.000  0.270  0.049  0.137  0.000  0.001  0.000  0.002  0.000  0.459
tot    0.000  0.346  0.063  0.176  0.006  0.018  0.000  0.036  0.000  0.645
    1 -0.000  0.056  0.014 -0.021  0.006 -0.009 -0.000  0.025 -0.000  0.069
    2 -0.000  0.197  0.049 -0.075  0.000 -0.000 -0.000  0.001 -0.000  0.171
tot   -0.000  0.252  0.062 -0.097  0.006 -0.010 -0.000  0.026 -0.000  0.241
    1 -0.000 -0.042  0.002  0.016  0.001  0.007 -0.000 -0.019 -0.000 -0.035
    2 -0.000 -0.150  0.007  0.058  0.000  0.000 -0.000 -0.001 -0.000 -0.086
tot   -0.000 -0.192  0.009  0.074  0.001  0.008 -0.000 -0.020 -0.000 -0.121
    1 -0.000  0.030  0.000  0.028  0.000  0.012 -0.000  0.014  0.000  0.085
    2 -0.000  0.107  0.002  0.099  0.000  0.001 -0.000  0.001  0.000  0.209
tot   -0.000  0.138  0.002  0.127  0.000  0.013 -0.000  0.014  0.000  0.294
 
band    18 # energy    4.12689349 # occ.  1.00361630
 
ion      s     py     pz     px    dxy    dyz    dz2    dxz  x2-y2    tot
    1  0.000  0.045  0.073  0.011  0.032  0.005  0.000  0.020  0.000  0.186
    2  0.000  0.159  0.257  0.039  0.001  0.000  0.000  0.001  0.000  0.458
tot    0.001  0.204  0.330  0.050  0.034  0.005  0.000  0.021  0.000  0.645
    1 -0.000 -0.035 -0.054  0.007 -0.024  0.003  0.000 -0.015  0.000 -0.117
    2 -0.000 -0.122 -0.190  0.025 -0.001  0.000  0.000 -0.001  0.000 -0.288
tot   -0.001 -0.157 -0.243  0.032 -0.025  0.003  0.000 -0.016  0.000 -0.406
    1 -0.000  0.022 -0.004  0.008 -0.002  0.004  0.000  0.010  0.000  0.037
    2 -0.000  0.077 -0.014  0.029 -0.000  0.000  0.000  0.000  0.000  0.092
tot   -0.000  0.098 -0.018  0.037 -0.002  0.004  0.000  0.010  0.000  0.129
    1 -0.000 -0.019  0.049 -0.002  0.022 -0.001 -0.000 -0.008  0.000  0.041
    2 -0.000 -0.067  0.174 -0.006  0.001 -0.000 -0.000 -0.000  0.000  0.101
tot   -0.000 -0.086  0.222 -0.008  0.023 -0.001 -0.000 -0.009  0.000  0.142
 
band    19 # energy    4.28879741 # occ.  0.00249633
 
ion      s     py     pz     px    dxy    dyz    dz2    dxz  x2-y2    tot
    1  0.370  0.000  0.000  0.000  0.000  0.000  0.000  0.000  0.000  0.370
    2  0.316  0.000  0.000  0.000  0.000  0.000  0.000  0.000  0.000  0.317
tot    0.686  0.000  0.000  0.000  0.000  0.000  0.000  0.000  0.000  0.687
    1 -0.266 -0.000 -0.000  0.000 -0.000  0.000  0.000 -0.000  0.000 -0.266
    2 -0.227 -0.000 -0.000  0.000 -0.000  0.000  0.000 -0.000  0.000 -0.227
tot   -0.493 -0.000 -0.000  0.000 -0.000  0.000  0.000 -0.000  0.000 -0.493
    1 -0.218  0.000  0.000  0.000 -0.000  0.000  0.000  0.000  0.000 -0.218
    2 -0.186  0.000  0.000  0.000  0.000  0.000  0.000  0.000  0.000 -0.186
tot   -0.405  0.000  0.000  0.000  0.000  0.000  0.000  0.000  0.000 -0.405
    1 -0.137 -0.000  0.000 -0.000  0.000 -0.000 -0.000 -0.000  0.000 -0.137
    2 -0.117 -0.000  0.000 -0.000  0.000 -0.000 -0.000 -0.000  0.000 -0.117
tot   -0.254 -0.000  0.000 -0.000  0.000 -0.000 -0.000 -0.000  0.000 -0.254
 
band    20 # energy    4.28899634 # occ. -0.01135511
 
ion      s     py     pz     px    dxy    dyz    dz2    dxz  x2-y2    tot
    1  0.371  0.000  0.000  0.000  0.000  0.000  0.000  0.000  0.000  0.371
    2  0.317  0.000  0.000  0.000  0.000  0.000  0.000  0.000  0.000  0.317
tot    0.687  0.000  0.000  0.000  0.000  0.000  0.000  0.000  0.000  0.687
    1  0.266 -0.000 -0.000  0.000 -0.000  0.000  0.000 -0.000  0.000  0.266
    2  0.227 -0.000 -0.000  0.000 -0.000  0.000  0.000 -0.000  0.000  0.227
tot    0.493 -0.000 -0.000  0.000 -0.000  0.000  0.000 -0.000  0.000  0.493
    1  0.219 -0.000  0.000  0.000  0.000  0.000 -0.000 -0.000 -0.000  0.219
    2  0.187 -0.000  0.000  0.000  0.000  0.000  0.000 -0.000 -0.000  0.187
tot    0.405 -0.000  0.000  0.000  0.000  0.000 -0.000 -0.000 -0.000  0.405
    1  0.137 -0.000  0.000 -0.000  0.000 -0.000  0.000 -0.000  0.000  0.137
    2  0.117 -0.000  0.000 -0.000  0.000 -0.000  0.000 -0.000 -0.000  0.117
tot    0.254 -0.000  0.000 -0.000  0.000 -0.000  0.000 -0.000  0.000  0.254
 
band    21 # energy    7.85230992 # occ.  0.00000000
 
ion      s     py     pz     px    dxy    dyz    dz2    dxz  x2-y2    tot
    1  0.000  0.094  0.386  0.091  0.005  0.001  0.000  0.001  0.000  0.577
    2  0.000  0.005  0.022  0.005  0.037  0.009  0.000  0.009  0.000  0.087
tot    0.000  0.099  0.407  0.097  0.041  0.010  0.000  0.010  0.000  0.664
    1  0.000 -0.039  0.361  0.039  0.004  0.001  0.000 -0.001 -0.000  0.366
    2 -0.000 -0.003  0.020  0.003  0.035  0.004  0.000 -0.004 -0.000  0.055
tot    0.000 -0.042  0.382  0.042  0.039  0.004  0.000 -0.004 -0.000  0.421
    1  0.000  0.057 -0.133 -0.050 -0.001 -0.001  0.000  0.001  0.000 -0.128
    2 -0.000  0.003 -0.007 -0.003 -0.013 -0.005  0.000  0.006  0.000 -0.019
tot    0.000  0.060 -0.140 -0.054 -0.014 -0.005  0.000  0.006  0.000 -0.147
    1 -0.000  0.063 -0.022  0.065  0.000  0.001 -0.000  0.001 -0.000  0.107
    2 -0.000  0.003  0.000  0.003 -0.002  0.006 -0.000  0.006 -0.000  0.017
tot   -0.000  0.066 -0.022  0.068 -0.002  0.007 -0.000  0.007 -0.000  0.123
 

 k-point     2 :    0.14285714 0.00000000 0.00000000     weight = 0.01166181

band     1 # energy  -10.27764962 # occ.  1.00000000
 
ion      s     py     pz     px    dxy    dyz    dz2    dxz  x2-y2    tot
    1  0.000  0.000  0.000  0.000  0.217  0.215  0.160  0.217  0.160  0.969
    2  0.003  0.001  0.001  0.001  0.000  0.000  0.000  0.000  0.000  0.006
tot    0.003  0.001  0.001  0.001  0.217  0.215  0.160  0.217  0.160  0.975
    1 -0.000 -0.000  0.000  0.000  0.106  0.033  0.134 -0.180 -0.081  0.012
    2 -0.001 -0.001  0.000  0.000 -0.000  0.000  0.000  0.000 -0.000 -0.001
tot   -0.001 -0.001  0.000  0.000  0.106  0.033  0.134 -0.180 -0.081  0.011
    1  0.000  0.000  0.000  0.000  0.042  0.183 -0.027  0.117 -0.026  0.289
    2  0.003  0.000 -0.000  0.001 -0.000  0.000 -0.000  0.000 -0.000  0.004
tot    0.003  0.001  0.000  0.001  0.042  0.183 -0.027  0.117 -0.026  0.293
    1 -0.000 -0.000 -0.000 -0.000 -0.185 -0.108  0.082  0.030 -0.135 -0.316
    2 -0.002  0.000 -0.001 -0.001 -0.000 -0.000  0.000  0.000 -0.000 -0.003
tot   -0.002  0.000 -0.001 -0.001 -0.185 -0.108  0.082  0.030 -0.135 -0.319
 
band     2 # energy  -10.27764961 # occ.  1.00000000
 
ion      s     py     pz     px    dxy    dyz    dz2    dxz  x2-y2    tot
    1  0.000  0.000  0.000  0.000  0.216  0.218  0.160  0.216  0.160  0.969
    2  0.003  0.001  0.001  0.001  0.000  0.000  0.000  0.000  0.000  0.006
tot    0.003  0.001  0.001  0.001  0.216  0.218  0.160  0.216  0.160  0.975
    1  0.000  0.000 -0.000 -0.000 -0.104 -0.033 -0.135  0.178  0.081 -0.012
    2  0.001  0.001 -0.001 -0.000 -0.000 -0.000 -0.000  0.000  0.000  0.001
tot    0.001  0.001 -0.001 -0.000 -0.104 -0.033 -0.135  0.179  0.081 -0.011
    1 -0.000 -0.000 -0.000 -0.000 -0.039 -0.185  0.027 -0.117  0.026 -0.288
    2 -0.003 -0.000 -0.000 -0.001 -0.000 -0.000  0.000 -0.000  0.000 -0.004
tot   -0.003 -0.001 -0.000 -0.001 -0.039 -0.185  0.027 -0.117  0.026 -0.292
    1  0.000 -0.000  0.000  0.000  0.185  0.110 -0.082 -0.033  0.135  0.316
    2  0.002  0.000  0.001  0.000  0.000 -0.000 -0.000  0.000  0.000  0.003
tot    0.002  0.000  0.001  0.000  0.185  0.110 -0.082 -0.033  0.135  0.318
 
band     3 # energy  -10.27547729 # occ.  1.00000000
 
ion      s     py     pz     px    dxy    dyz    dz2    dxz  x2-y2    tot
    1  0.000  0.000  0.000  0.000  0.213  0.213  0.167  0.213  0.167  0.972
    2  0.000  0.001  0.001  0.001  0.000  0.000  0.000  0.000  0.000  0.004
tot    0.000  0.001  0.001  0.001  0.213  0.213  0.167  0.213  0.167  0.976
    1  0.000  0.000 -0.000  0.000 -0.150 -0.000 -0.118  0.150  0.118 -0.000
    2 -0.000  0.001 -0.001 -0.000 -0.000  0.000 -0.000  0.000  0.000 -0.000
tot    0.000  0.001 -0.001  0.000 -0.150 -0.000 -0.118  0.150  0.118 -0.000
    1 -0.000 -0.000 -0.000  0.000 -0.151  0.150 -0.118 -0.000  0.118 -0.001
    2  0.000 -0.000 -0.001  0.001 -0.000  0.000 -0.000 -0.000  0.000 -0.000
tot    0.000 -0.000 -0.001  0.001 -0.151  0.150 -0.118 -0.000  0.118 -0.001
    1  0.000  0.000  0.000 -0.000  0.000 -0.150 -0.000  0.151  0.000  0.001
    2 -0.000  0.001  0.000 -0.001  0.000 -0.000 -0.000  0.000  0.000  0.000
tot   -0.000  0.001  0.000 -0.001  0.000 -0.150 -0.000  0.151  0.000  0.001
 
band     4 # energy  -10.26751979 # occ.  1.00000000
 
ion      s     py     pz     px    dxy    dyz    dz2    dxz  x2-y2    tot
    1  0.000  0.000  0.000  0.000  0.214  0.214  0.166  0.214  0.166  0.973
    2  0.000  0.001  0.001  0.001  0.000  0.000  0.000  0.000  0.000  0.003
tot    0.000  0.001  0.001  0.001  0.214  0.214  0.166  0.214  0.166  0.977
    1  0.000 -0.000  0.000 -0.000  0.151  0.000  0.117 -0.151 -0.117 -0.000
    2  0.000 -0.001  0.001 -0.000  0.000  0.000  0.000 -0.000 -0.000 -0.000
tot    0.000 -0.001  0.001 -0.000  0.151  0.000  0.117 -0.151 -0.117 -0.000
    1  0.000  0.000  0.000 -0.000  0.151 -0.151  0.117  0.000 -0.117  0.000
    2 -0.000  0.000  0.001 -0.001  0.000 -0.000  0.000  0.000 -0.000  0.000
tot    0.000  0.000  0.001 -0.001  0.151 -0.151  0.117  0.000 -0.117  0.000
    1 -0.000 -0.000 -0.000  0.000 -0.000  0.151  0.000 -0.151 -0.000 -0.000
    2  0.000 -0.001 -0.000  0.001 -0.000  0.000  0.000 -0.000 -0.000 -0.000
tot    0.000 -0.001 -0.000  0.001 -0.000  0.151  0.000 -0.151 -0.000 -0.000
 
band     5 # energy   -9.48687674 # occ.  1.00000000
 
ion      s     py     pz     px    dxy    dyz    dz2    dxz  x2-y2    tot
    1  0.000  0.000  0.000  0.000  0.329  0.295  0.004  0.329  0.004  0.962
    2  0.004  0.002  0.002  0.002  0.000  0.000  0.000  0.000  0.000  0.010
tot    0.004  0.002  0.002  0.003  0.329  0.295  0.004  0.329  0.004  0.972
    1 -0.000  0.000 -0.000 -0.000 -0.005 -0.003 -0.003  0.011  0.003  0.003
    2 -0.000 -0.000  0.000 -0.000  0.000 -0.000 -0.000 -0.000  0.000  0.000
tot   -0.000 -0.000  0.000 -0.000 -0.005 -0.003 -0.003  0.011  0.003  0.003
    1 -0.000  0.000 -0.000 -0.000 -0.250 -0.210 -0.000  0.217 -0.000 -0.243
    2 -0.003  0.001 -0.001 -0.002 -0.000 -0.000 -0.000  0.000 -0.000 -0.004
tot   -0.003  0.001 -0.001 -0.002 -0.250 -0.210 -0.000  0.217 -0.000 -0.247
    1  0.000  0.000 -0.000  0.000 -0.214  0.208 -0.003  0.248  0.003  0.241
    2  0.003  0.001 -0.001  0.002 -0.000  0.000 -0.000  0.000  0.000  0.004
tot    0.003  0.001 -0.001  0.002 -0.215  0.208 -0.003  0.248  0.003  0.246
 
band     6 # energy   -9.48687629 # occ.  1.00000000
 
ion      s     py     pz     px    dxy    dyz    dz2    dxz  x2-y2    tot
    1  0.000  0.000  0.000  0.000  0.307  0.341  0.004  0.306  0.004  0.962
    2  0.004  0.002  0.002  0.001  0.000  0.000  0.000  0.000  0.000  0.010
tot    0.004  0.002  0.002  0.002  0.307  0.341  0.004  0.307  0.004  0.972
    1 -0.000  0.000 -0.000  0.000 -0.027  0.003  0.003  0.021 -0.003 -0.003
    2  0.000 -0.001  0.000  0.000  0.000  0.000  0.000 -0.000 -0.000 -0.000
tot    0.000 -0.000  0.000  0.000 -0.027  0.003  0.003  0.021 -0.003 -0.003
    1  0.000 -0.000  0.000  0.000  0.217  0.242  0.000 -0.217  0.000  0.243
    2  0.003 -0.001  0.002  0.001  0.000  0.000  0.000 -0.000  0.000  0.004
tot    0.003 -0.001  0.002  0.001  0.218  0.242  0.000 -0.217  0.000  0.247
    1 -0.000 -0.000  0.000 -0.000  0.214 -0.240  0.003 -0.216 -0.003 -0.241
    2 -0.003 -0.002  0.001 -0.001  0.000 -0.000  0.000 -0.000 -0.000 -0.004
tot   -0.003 -0.002  0.001 -0.001  0.215 -0.240  0.003 -0.216 -0.003 -0.246
 
band     7 # energy   -9.40594853 # occ.  1.00000000
 
ion      s     py     pz     px    dxy    dyz    dz2    dxz  x2-y2    tot
    1  0.000  0.000  0.000  0.000  0.117  0.085  0.326  0.117  0.326  0.972
    2  0.002  0.001  0.001  0.001  0.000  0.000  0.000  0.000  0.000  0.005
tot    0.002  0.001  0.001  0.001  0.117  0.086  0.326  0.117  0.326  0.977
    1 -0.000 -0.000  0.000  0.000  0.102  0.001  0.233 -0.104 -0.227  0.006
    2 -0.000 -0.000  0.000  0.000  0.000  0.000  0.000 -0.000 -0.000 -0.000
tot   -0.000 -0.000  0.000  0.000  0.102  0.001  0.234 -0.104 -0.227  0.006
    1  0.000  0.000  0.000  0.000  0.003  0.061 -0.004  0.054 -0.002  0.112
    2  0.002  0.000 -0.000  0.001 -0.000  0.000 -0.000  0.000 -0.000  0.002
tot    0.002  0.000 -0.000  0.001  0.003  0.061 -0.004  0.054 -0.002  0.114
    1 -0.000 -0.000 -0.000 -0.000 -0.057 -0.059  0.228 -0.002 -0.234 -0.125
    2 -0.002  0.000 -0.000 -0.001 -0.000 -0.000  0.000  0.000 -0.000 -0.002
tot   -0.002  0.000 -0.000 -0.001 -0.057 -0.059  0.228 -0.002 -0.234 -0.128
 
band     8 # energy   -9.40594810 # occ.  1.00000000
 
ion      s     py     pz     px    dxy    dyz    dz2    dxz  x2-y2    tot
    1  0.000  0.000  0.000  0.000  0.096  0.128  0.326  0.096  0.326  0.972
    2  0.002  0.001  0.001  0.000  0.000  0.000  0.000  0.000  0.000  0.005
tot    0.002  0.001  0.001  0.000  0.096  0.128  0.326  0.096  0.326  0.977
    1  0.000  0.000 -0.000 -0.000 -0.072 -0.001 -0.233  0.074  0.227 -0.006
    2  0.000  0.001 -0.001 -0.000 -0.000 -0.000 -0.000  0.000  0.000  0.000