 running on   54 total cores
 distrk:  each k-point on    9 cores,    6 groups
 distr:  one band on    3 cores,    3 groups
 using from now: INCAR     
 vasp.5.4.4.18Apr17-6-g9f103f2a35 (build Sep 01 2023 15:53:54) complex          
  
 POSCAR found type information on POSCAR  In As
 POSCAR found :  2 types and       2 ions
 scaLAPACK will be used

 ----------------------------------------------------------------------------- 
|                                                                             |
|           W    W    AA    RRRRR   N    N  II  N    N   GGGG   !!!           |
|           W    W   A  A   R    R  NN   N  II  NN   N  G    G  !!!           |
|           W    W  A    A  R    R  N N  N  II  N N  N  G       !!!           |
|           W WW W  AAAAAA  RRRRR   N  N N  II  N  N N  G  GGG   !            |
|           WW  WW  A    A  R   R   N   NN  II  N   NN  G    G                |
|           W    W  A    A  R    R  N    N  II  N    N   GGGG   !!!           |
|                                                                             |
|      For optimal performance we recommend to set                            |
|        NCORE= 4 - approx SQRT( number of cores)                             |
|      NCORE specifies how many cores store one orbital (NPAR=cpu/NCORE).     |
|      This setting can  greatly improve the performance of VASP for DFT.     |
|      The default,   NCORE=1            might be grossly inefficient         |
|      on modern multi-core architectures or massively parallel machines.     |
|      Do your own testing !!!!                                               |
|      Unfortunately you need to use the default for GW and RPA calculations. |
|      (for HF NCORE is supported but not extensively tested yet)             |
|                                                                             |
 ----------------------------------------------------------------------------- 


 ----------------------------------------------------------------------------- 
|                                                                             |
|           W    W    AA    RRRRR   N    N  II  N    N   GGGG   !!!           |
|           W    W   A  A   R    R  NN   N  II  NN   N  G    G  !!!           |
|           W    W  A    A  R    R  N N  N  II  N N  N  G       !!!           |
|           W WW W  AAAAAA  RRRRR   N  N N  II  N  N N  G  GGG   !            |
|           WW  WW  A    A  R   R   N   NN  II  N   NN  G    G                |
|           W    W  A    A  R    R  N    N  II  N    N   GGGG   !!!           |
|                                                                             |
|      You have enabled k-point parallelism (KPAR>1).                         |
|      This developmental code was originally  written by Paul Kent at ORNL,  |
|      and carefully double checked in Vienna.                                |
|      GW as well as linear response parallelism added by Martijn Marsman     |
|      and Georg Kresse.                                                      |
|      Carefully verify results versus KPAR=1.                                |
|      Report problems to Paul Kent and Vienna.                               |
|                                                                             |
 ----------------------------------------------------------------------------- 

 LDA part: xc-table for Pade appr. of Perdew
 POSCAR, INCAR and KPOINTS ok, starting setup
 FFT: planning ...
 WAVECAR not read
 entering main loop
       N       E                     dE             d eps       ncg     rms          ort
DAV:   1     0.187524776251E+03    0.18752E+03   -0.66078E+03   630   0.161E+03
DAV:   2     0.515159001071E+02   -0.13601E+03   -0.13292E+03   630   0.457E+02
DAV:   3     0.728104934617E+01   -0.44235E+02   -0.42870E+02   630   0.276E+02
DAV:   4    -0.892416914515E+01   -0.16205E+02   -0.15946E+02   630   0.157E+02
DAV:   5    -0.113946998027E+02   -0.24705E+01   -0.24427E+01   630   0.532E+01
 gam= 0.000 g(H,U,f)=  0.219E+01 0.301E-01-0.290E-14 ort(H,U,f) = 0.000E+00 0.000E+00 0.000E+00
SDA:   6    -0.102909238053E+02    0.11038E+01   -0.88622E+00   630   0.222E+01 0.000E+00
 gam= 0.382 g(H,U,f)=  0.859E+00 0.160E-01-0.674E-17 ort(H,U,f) = 0.111E+01 0.192E-01-0.171E-16
DMP:   7    -0.109600443457E+02   -0.66912E+00   -0.52237E+00   630   0.875E+00 0.113E+01
 gam= 0.382 g(H,U,f)=  0.297E+00 0.162E-01-0.343E-16 ort(H,U,f) = 0.482E+00 0.200E-01-0.974E-16
DMP:   8    -0.113226183610E+02   -0.36257E+00   -0.20186E+00   630   0.313E+00 0.502E+00
 gam= 0.382 g(H,U,f)=  0.124E+00 0.129E-01-0.380E-17 ort(H,U,f) = 0.194E+00 0.197E-01 0.643E-16
DMP:   9    -0.114681560191E+02   -0.14554E+00   -0.87271E-01   630   0.137E+00 0.214E+00
 gam= 0.382 g(H,U,f)=  0.590E-01 0.972E-02-0.589E-15 ort(H,U,f) = 0.883E-01 0.172E-01 0.220E-15
DMP:  10    -0.115344039804E+02   -0.66248E-01   -0.43586E-01   630   0.687E-01 0.105E+00
 gam= 0.382 g(H,U,f)=  0.202E-01 0.701E-02-0.267E-12 ort(H,U,f) = 0.396E-01 0.140E-01-0.384E-12
DMP:  11    -0.115678199276E+02   -0.33416E-01   -0.19075E-01   630   0.272E-01 0.536E-01
 gam= 0.382 g(H,U,f)=  0.704E-02 0.441E-02-0.316E-08 ort(H,U,f) = 0.135E-01 0.100E-01-0.595E-08
DMP:  12    -0.115825561452E+02   -0.14736E-01   -0.81760E-02   630   0.115E-01 0.235E-01
 gam= 0.382 g(H,U,f)=  0.295E-02 0.258E-02-0.123E-05 ort(H,U,f) = 0.431E-02 0.647E-02-0.279E-05
DMP:  13    -0.115890415715E+02   -0.64854E-02   -0.38562E-02   630   0.552E-02 0.108E-01
 gam= 0.382 g(H,U,f)=  0.128E-02 0.144E-02-0.993E-05 ort(H,U,f) = 0.167E-02 0.394E-02-0.259E-04
DMP:  14    -0.115921894152E+02   -0.31478E-02   -0.19381E-02   630   0.271E-02 0.559E-02
 gam= 0.382 g(H,U,f)=  0.639E-03 0.796E-03-0.729E-04 ort(H,U,f) = 0.850E-03 0.233E-02-0.213E-03
DMP:  15    -0.115938144705E+02   -0.16251E-02   -0.99821E-03   630   0.136E-02 0.297E-02
 gam= 0.382 g(H,U,f)=  0.265E-03 0.537E-03 0.145E-03 ort(H,U,f) = 0.447E-03 0.168E-02 0.465E-03
DMP:  16    -0.115948695668E+02   -0.10551E-02   -0.77382E-03   630   0.946E-03 0.259E-02
 gam= 0.382 g(H,U,f)=  0.114E-03 0.272E-03 0.168E-04 ort(H,U,f) = 0.207E-03 0.893E-03 0.569E-04
DMP:  17    -0.115955211861E+02   -0.65162E-03   -0.33788E-03   630   0.403E-03 0.116E-02
 gam= 0.382 g(H,U,f)=  0.472E-04 0.127E-03 0.535E-05 ort(H,U,f) = 0.924E-04 0.417E-03 0.173E-04
DMP:  18    -0.115957883925E+02   -0.26721E-03   -0.15237E-03   630   0.180E-03 0.527E-03
 gam= 0.382 g(H,U,f)=  0.191E-04 0.103E-03 0.728E-05 ort(H,U,f) = 0.394E-04 0.346E-03 0.246E-04
DMP:  19    -0.115959429929E+02   -0.15460E-03   -0.11454E-03   630   0.130E-03 0.410E-03
 gam= 0.382 g(H,U,f)=  0.842E-05 0.935E-04 0.619E-05 ort(H,U,f) = 0.166E-04 0.328E-03 0.223E-04
DMP:  20    -0.115960752598E+02   -0.13227E-03   -0.99339E-04   630   0.108E-03 0.367E-03
 gam= 0.382 g(H,U,f)=  0.422E-05 0.549E-04 0.173E-05 ort(H,U,f) = 0.775E-05 0.204E-03 0.677E-05
DMP:  21    -0.115961732723E+02   -0.98012E-04   -0.57693E-04   630   0.609E-04 0.218E-03
 gam= 0.382 g(H,U,f)=  0.199E-05 0.211E-04-0.270E-05 ort(H,U,f) = 0.389E-05 0.823E-04-0.108E-04
DMP:  22    -0.115962178890E+02   -0.44617E-04   -0.19657E-04   630   0.204E-04 0.753E-04
 gam= 0.382 g(H,U,f)=  0.899E-06 0.683E-05-0.124E-06 ort(H,U,f) = 0.187E-05 0.279E-04-0.535E-06
DMP:  23    -0.115962337795E+02   -0.15890E-04   -0.75106E-05   630   0.760E-05 0.293E-04
 gam= 0.382 g(H,U,f)=  0.398E-06 0.220E-05 0.165E-07 ort(H,U,f) = 0.880E-06 0.938E-05 0.721E-07
DMP:  24    -0.115962395498E+02   -0.57703E-05   -0.26232E-05   630   0.261E-05 0.103E-04
 final diagonalization
   1 F= -.11596240E+02 E0= -.11596244E+02  d E =0.128830E-04  mag=     0.0000     0.0000     0.0000
 writing wavefunctions
