 running on   54 total cores
 distrk:  each k-point on    9 cores,    6 groups
 distr:  one band on    3 cores,    3 groups
 using from now: INCAR     
 vasp.5.4.4.18Apr17-6-g9f103f2a35 (build Sep 01 2023 15:53:54) complex          
  
 POSCAR found type information on POSCAR  In As
 POSCAR found :  2 types and       2 ions
 scaLAPACK will be used

 ----------------------------------------------------------------------------- 
|                                                                             |
|           W    W    AA    RRRRR   N    N  II  N    N   GGGG   !!!           |
|           W    W   A  A   R    R  NN   N  II  NN   N  G    G  !!!           |
|           W    W  A    A  R    R  N N  N  II  N N  N  G       !!!           |
|           W WW W  AAAAAA  RRRRR   N  N N  II  N  N N  G  GGG   !            |
|           WW  WW  A    A  R   R   N   NN  II  N   NN  G    G                |
|           W    W  A    A  R    R  N    N  II  N    N   GGGG   !!!           |
|                                                                             |
|      For optimal performance we recommend to set                            |
|        NCORE= 4 - approx SQRT( number of cores)                             |
|      NCORE specifies how many cores store one orbital (NPAR=cpu/NCORE).     |
|      This setting can  greatly improve the performance of VASP for DFT.     |
|      The default,   NCORE=1            might be grossly inefficient         |
|      on modern multi-core architectures or massively parallel machines.     |
|      Do your own testing !!!!                                               |
|      Unfortunately you need to use the default for GW and RPA calculations. |
|      (for HF NCORE is supported but not extensively tested yet)             |
|                                                                             |
 ----------------------------------------------------------------------------- 


 ----------------------------------------------------------------------------- 
|                                                                             |
|           W    W    AA    RRRRR   N    N  II  N    N   GGGG   !!!           |
|           W    W   A  A   R    R  NN   N  II  NN   N  G    G  !!!           |
|           W    W  A    A  R    R  N N  N  II  N N  N  G       !!!           |
|           W WW W  AAAAAA  RRRRR   N  N N  II  N  N N  G  GGG   !            |
|           WW  WW  A    A  R   R   N   NN  II  N   NN  G    G                |
|           W    W  A    A  R    R  N    N  II  N    N   GGGG   !!!           |
|                                                                             |
|      You have enabled k-point parallelism (KPAR>1).                         |
|      This developmental code was originally  written by Paul Kent at ORNL,  |
|      and carefully double checked in Vienna.                                |
|      GW as well as linear response parallelism added by Martijn Marsman     |
|      and Georg Kresse.                                                      |
|      Carefully verify results versus KPAR=1.                                |
|      Report problems to Paul Kent and Vienna.                               |
|                                                                             |
 ----------------------------------------------------------------------------- 

 LDA part: xc-table for Pade appr. of Perdew
 POSCAR, INCAR and KPOINTS ok, starting setup
 FFT: planning ...
 WAVECAR not read
 entering main loop
       N       E                     dE             d eps       ncg     rms          ort
DAV:   1     0.187510286575E+03    0.18751E+03   -0.66079E+03   630   0.161E+03
DAV:   2     0.515004578135E+02   -0.13601E+03   -0.13292E+03   630   0.457E+02
DAV:   3     0.728329749525E+01   -0.44217E+02   -0.42854E+02   630   0.276E+02
DAV:   4    -0.890757414665E+01   -0.16191E+02   -0.15933E+02   630   0.157E+02
DAV:   5    -0.113755686581E+02   -0.24680E+01   -0.24402E+01   630   0.532E+01
 gam= 0.000 g(H,U,f)=  0.224E+01 0.301E-01-0.619E-14 ort(H,U,f) = 0.000E+00 0.000E+00 0.000E+00
SDA:   6    -0.102291229102E+02    0.11464E+01   -0.90719E+00   630   0.227E+01 0.000E+00
 gam= 0.382 g(H,U,f)=  0.867E+00 0.163E-01-0.242E-16 ort(H,U,f) = 0.115E+01 0.194E-01-0.615E-16
DMP:   7    -0.109168620603E+02   -0.68774E+00   -0.53193E+00   630   0.884E+00 0.117E+01
 gam= 0.382 g(H,U,f)=  0.300E+00 0.162E-01-0.811E-16 ort(H,U,f) = 0.498E+00 0.199E-01-0.182E-15
DMP:   8    -0.112872763354E+02   -0.37041E+00   -0.20567E+00   630   0.316E+00 0.518E+00
 gam= 0.382 g(H,U,f)=  0.126E+00 0.130E-01-0.411E-17 ort(H,U,f) = 0.198E+00 0.197E-01 0.761E-16
DMP:   9    -0.114354887262E+02   -0.14821E+00   -0.88806E-01   630   0.139E+00 0.218E+00
 gam= 0.382 g(H,U,f)=  0.592E-01 0.981E-02-0.967E-15 ort(H,U,f) = 0.904E-01 0.172E-01 0.340E-15
DMP:  10    -0.115029301775E+02   -0.67441E-01   -0.44033E-01   630   0.690E-01 0.108E+00
 gam= 0.382 g(H,U,f)=  0.203E-01 0.703E-02-0.128E-12 ort(H,U,f) = 0.402E-01 0.140E-01-0.184E-12
DMP:  11    -0.115366888734E+02   -0.33759E-01   -0.19208E-01   630   0.273E-01 0.542E-01
 gam= 0.382 g(H,U,f)=  0.707E-02 0.443E-02-0.166E-08 ort(H,U,f) = 0.135E-01 0.100E-01-0.312E-08
DMP:  12    -0.115514994726E+02   -0.14811E-01   -0.82030E-02   630   0.115E-01 0.236E-01
 gam= 0.382 g(H,U,f)=  0.296E-02 0.259E-02-0.901E-06 ort(H,U,f) = 0.432E-02 0.651E-02-0.204E-05
DMP:  13    -0.115580082021E+02   -0.65087E-02   -0.38747E-02   630   0.555E-02 0.108E-01
 gam= 0.382 g(H,U,f)=  0.130E-02 0.145E-02-0.971E-05 ort(H,U,f) = 0.168E-02 0.396E-02-0.253E-04
DMP:  14    -0.115611720840E+02   -0.31639E-02   -0.19538E-02   630   0.274E-02 0.561E-02
 gam= 0.382 g(H,U,f)=  0.645E-03 0.796E-03-0.658E-04 ort(H,U,f) = 0.864E-03 0.233E-02-0.192E-03
DMP:  15    -0.115628132299E+02   -0.16411E-02   -0.10087E-02   630   0.138E-02 0.300E-02
 gam= 0.382 g(H,U,f)=  0.269E-03 0.516E-03 0.157E-03 ort(H,U,f) = 0.455E-03 0.161E-02 0.504E-03
DMP:  16    -0.115638425056E+02   -0.10293E-02   -0.76895E-03   630   0.942E-03 0.257E-02
 gam= 0.382 g(H,U,f)=  0.115E-03 0.288E-03 0.147E-04 ort(H,U,f) = 0.210E-03 0.950E-03 0.496E-04
DMP:  17    -0.115645074392E+02   -0.66493E-03   -0.35217E-03   630   0.418E-03 0.121E-02
 gam= 0.382 g(H,U,f)=  0.475E-04 0.126E-03 0.552E-05 ort(H,U,f) = 0.936E-04 0.414E-03 0.181E-04
DMP:  18    -0.115647826502E+02   -0.27521E-03   -0.15173E-03   630   0.179E-03 0.526E-03
 gam= 0.382 g(H,U,f)=  0.190E-04 0.988E-04 0.680E-05 ort(H,U,f) = 0.395E-04 0.330E-03 0.229E-04
DMP:  19    -0.115649334310E+02   -0.15078E-03   -0.10989E-03   630   0.125E-03 0.393E-03
 gam= 0.382 g(H,U,f)=  0.833E-05 0.918E-04 0.637E-05 ort(H,U,f) = 0.165E-04 0.322E-03 0.230E-04
DMP:  20    -0.115650612513E+02   -0.12782E-03   -0.97755E-04   630   0.106E-03 0.361E-03
 gam= 0.382 g(H,U,f)=  0.419E-05 0.570E-04 0.229E-05 ort(H,U,f) = 0.764E-05 0.211E-03 0.893E-05
DMP:  21    -0.115651603300E+02   -0.99079E-04   -0.60218E-04   630   0.635E-04 0.228E-03
 gam= 0.382 g(H,U,f)=  0.196E-05 0.206E-04-0.107E-04 ort(H,U,f) = 0.381E-05 0.803E-04-0.424E-04
DMP:  22    -0.115652021581E+02   -0.41828E-04   -0.11090E-04   630   0.118E-04 0.417E-04
 gam= 0.382 g(H,U,f)=  0.878E-06 0.730E-05-0.314E-06 ort(H,U,f) = 0.182E-05 0.298E-04-0.134E-05
DMP:  23    -0.115652260095E+02   -0.23851E-04   -0.77761E-05   630   0.786E-05 0.303E-04
 gam= 0.382 g(H,U,f)=  0.388E-06 0.233E-05-0.272E-07 ort(H,U,f) = 0.843E-06 0.996E-05-0.124E-06
DMP:  24    -0.115652319790E+02   -0.59695E-05   -0.27078E-05   630   0.269E-05 0.107E-04
 final diagonalization
   1 F= -.11565232E+02 E0= -.11565237E+02  d E =0.152411E-04  mag=    -0.0000    -0.0000     0.0000
 writing wavefunctions
