<?xml version="1.0" encoding="ISO-8859-1"?>
<modeling>
 <generator>
  <i name="program" type="string">vasp </i>
  <i name="version" type="string">5.4.4.18Apr17-6-g9f103f2a35  </i>
  <i name="subversion" type="string">(build Sep 01 2023 15:53:54) complex            parallel </i>
  <i name="platform" type="string">LinuxIFC </i>
  <i name="date" type="string">2024 08 12 </i>
  <i name="time" type="string">11:34:20 </i>
 </generator>
 <incar>
  <i type="int" name="ISTART">     0</i>
  <i type="string" name="PREC">n</i>
  <i type="string" name="ALGO"> D</i>
  <i type="logical" name="LSORBIT"> T  </i>
  <v name="SAXIS">      0.00000000      0.00000000      1.00000000</v>
  <i type="int" name="ISPIN">     2</i>
  <i name="BMIX">      3.00000000</i>
  <i name="AMIN">      0.01000000</i>
  <i type="int" name="ICHARG">     2</i>
  <i name="EDIFF">      0.00001000</i>
  <i name="ENCUT">    400.00000000</i>
  <i type="int" name="NBANDS">    21</i>
  <v name="MAGMOM">      0.00000000      0.00000000      0.00000000      0.00000000      0.00000000      0.00000000</v>
  <i name="SIGMA">      0.05000000</i>
  <i type="int" name="LMAXMIX">     4</i>
  <i type="int" name="LORBIT">    11</i>
  <v type="int" name="KPOINT_BSE">    -1     0     0     0</v>
  <i type="string" name="GGA"> Pe</i>
  <i type="logical" name="LDAU"> T  </i>
  <v type="int" name="LDAUL">     1     1</v>
  <v name="LDAUU">     -4.19419419     -3.61361361</v>
  <v name="LDAUJ">      0.00000000      0.00000000</v>
 </incar>
 <structure name="primitive_cell" >
  <crystal>
   <varray name="basis" >
    <v>       0.00000000       3.02920000       3.02920000 </v>
    <v>       3.02920000       0.00000000       3.02920000 </v>
    <v>       3.02920000       3.02920000       0.00000000 </v>
   </varray>
   <i name="volume">     55.59219731 </i>
   <varray name="rec_basis" >
    <v>      -0.16506008       0.16506008       0.16506008 </v>
    <v>       0.16506008      -0.16506008       0.16506008 </v>
    <v>       0.16506008       0.16506008      -0.16506008 </v>
   </varray>
  </crystal>
  <varray name="positions" >
   <v>       0.00000000       0.00000000       0.00000000 </v>
   <v>      -0.25000000      -0.25000000      -0.25000000 </v>
  </varray>
 </structure>
 <varray name="primitive_index" >
  <v type="int" >        1 </v>
  <v type="int" >        2 </v>
 </varray>
 <kpoints>
  <generation param="Gamma">
   <v type="int" name="divisions">       7        7        7 </v>
   <v name="usershift">      0.00000000       0.00000000       0.00000000 </v>
   <v name="genvec1">      0.14285714       0.00000000       0.00000000 </v>
   <v name="genvec2">      0.00000000       0.14285714       0.00000000 </v>
   <v name="genvec3">      0.00000000       0.00000000       0.14285714 </v>
   <v name="shift">      0.00000000       0.00000000       0.00000000 </v>
  </generation>
  <varray name="kpointlist" >
   <v>       0.00000000       0.00000000       0.00000000 </v>
   <v>       0.14285714       0.00000000       0.00000000 </v>
   <v>       0.28571429       0.00000000       0.00000000 </v>
   <v>       0.42857143       0.00000000       0.00000000 </v>
   <v>      -0.42857143       0.00000000       0.00000000 </v>
   <v>      -0.28571429       0.00000000       0.00000000 </v>
   <v>      -0.14285714       0.00000000       0.00000000 </v>
   <v>       0.14285714       0.14285714       0.00000000 </v>
   <v>       0.28571429       0.14285714       0.00000000 </v>
   <v>       0.42857143       0.14285714       0.00000000 </v>
   <v>      -0.42857143       0.14285714       0.00000000 </v>
   <v>      -0.28571429       0.14285714       0.00000000 </v>
   <v>      -0.14285714       0.14285714       0.00000000 </v>
   <v>       0.28571429       0.28571429       0.00000000 </v>
   <v>       0.42857143       0.28571429       0.00000000 </v>
   <v>      -0.42857143       0.28571429       0.00000000 </v>
   <v>      -0.28571429       0.28571429       0.00000000 </v>
   <v>      -0.14285714       0.28571429       0.00000000 </v>
   <v>       0.42857143       0.42857143       0.00000000 </v>
   <v>      -0.42857143       0.42857143       0.00000000 </v>
   <v>      -0.28571429       0.42857143       0.00000000 </v>
   <v>      -0.14285714       0.42857143       0.00000000 </v>
   <v>      -0.28571429      -0.42857143       0.00000000 </v>
   <v>      -0.14285714      -0.42857143       0.00000000 </v>
   <v>      -0.14285714      -0.28571429       0.00000000 </v>
   <v>       0.42857143       0.28571429       0.14285714 </v>
   <v>      -0.42857143       0.28571429       0.14285714 </v>
   <v>      -0.28571429       0.28571429       0.14285714 </v>
   <v>      -0.42857143       0.42857143       0.14285714 </v>
   <v>      -0.28571429       0.42857143       0.14285714 </v>
  </varray>
  <varray name="weights" >
   <v>       0.00291545 </v>
   <v>       0.01166181 </v>
   <v>       0.01166181 </v>
   <v>       0.01166181 </v>
   <v>       0.01166181 </v>
   <v>       0.01166181 </v>
   <v>       0.01166181 </v>
   <v>       0.01749271 </v>
   <v>       0.03498542 </v>
   <v>       0.03498542 </v>
   <v>       0.03498542 </v>
   <v>       0.03498542 </v>
   <v>       0.03498542 </v>
   <v>       0.01749271 </v>
   <v>       0.03498542 </v>
   <v>       0.03498542 </v>
   <v>       0.03498542 </v>
   <v>       0.03498542 </v>
   <v>       0.01749271 </v>
   <v>       0.03498542 </v>
   <v>       0.03498542 </v>
   <v>       0.03498542 </v>
   <v>       0.03498542 </v>
   <v>       0.03498542 </v>
   <v>       0.03498542 </v>
   <v>       0.06997085 </v>
   <v>       0.06997085 </v>
   <v>       0.06997085 </v>
   <v>       0.06997085 </v>
   <v>       0.06997085 </v>
  </varray>
 </kpoints>
 <parameters>
  <separator name="general" >
   <i type="string" name="SYSTEM">unknown system</i>
   <i type="logical" name="LCOMPAT"> F  </i>
  </separator>
  <separator name="electronic" >
   <i type="string" name="PREC">n</i>
   <i name="ENMAX">    400.00000000</i>
   <i name="ENAUG">    462.75800000</i>
   <i name="EDIFF">      0.00001000</i>
   <i type="int" name="IALGO">    53</i>
   <i type="int" name="IWAVPR">    10</i>
   <i type="int" name="NBANDS">    21</i>
   <i name="NELECT">     18.00000000</i>
   <i type="int" name="TURBO">     0</i>
   <i type="int" name="IRESTART">     0</i>
   <i type="int" name="NREBOOT">     0</i>
   <i type="int" name="NMIN">     0</i>
   <i name="EREF">      0.00000000</i>
   <separator name="electronic smearing" >
    <i type="int" name="ISMEAR">     1</i>
    <i name="SIGMA">      0.05000000</i>
    <i name="KSPACING">      0.50000000</i>
    <i type="logical" name="KGAMMA"> T  </i>
   </separator>
   <separator name="electronic projectors" >
    <i type="logical" name="LREAL"> F  </i>
    <v name="ROPT">      0.00000000      0.00000000</v>
    <i type="int" name="LMAXPAW">  -100</i>
    <i type="int" name="LMAXMIX">     4</i>
    <i type="logical" name="NLSPLINE"> F  </i>
   </separator>
   <separator name="electronic startup" >
    <i type="int" name="ISTART">     0</i>
    <i type="int" name="ICHARG">     2</i>
    <i type="int" name="INIWAV">     1</i>
   </separator>
   <separator name="electronic spin" >
    <i type="int" name="ISPIN">     1</i>
    <i type="logical" name="LNONCOLLINEAR"> T  </i>
    <v name="MAGMOM">      0.00000000      0.00000000      0.00000000      0.00000000      0.00000000      0.00000000</v>
    <i name="NUPDOWN">     -1.00000000</i>
    <i type="logical" name="LSORBIT"> T  </i>
    <v name="SAXIS">      0.00000000      0.00000000      1.00000000</v>
    <i type="logical" name="LSPIRAL"> F  </i>
    <v name="QSPIRAL">      0.00000000      0.00000000      0.00000000</v>
    <i type="logical" name="LZEROZ"> F  </i>
   </separator>
   <separator name="electronic exchange-correlation" >
    <i type="logical" name="LASPH"> F  </i>
    <i type="logical" name="LMETAGGA"> F  </i>
   </separator>
   <separator name="electronic convergence" >
    <i type="int" name="NELM">    60</i>
    <i type="int" name="NELMDL">    -5</i>
    <i type="int" name="NELMIN">     2</i>
    <i name="ENINI">    400.00000000</i>
    <separator name="electronic convergence detail" >
     <i type="logical" name="LDIAG"> T  </i>
     <i type="logical" name="LSUBROT"> F  </i>
     <i name="WEIMIN">      0.00000000</i>
     <i name="EBREAK">      0.00000012</i>
     <i name="DEPER">      0.30000000</i>
     <i type="int" name="NRMM">     4</i>
     <i name="TIME">      0.40000000</i>
    </separator>
   </separator>
   <separator name="electronic mixer" >
    <i name="AMIX">      0.40000000</i>
    <i name="BMIX">      3.00000000</i>
    <i name="AMIN">      0.01000000</i>
    <i name="AMIX_MAG">      1.60000000</i>
    <i name="BMIX_MAG">      3.00000000</i>
    <separator name="electronic mixer details" >
     <i type="int" name="IMIX">     4</i>
     <i type="logical" name="MIXFIRST"> F  </i>
     <i type="int" name="MAXMIX">   -45</i>
     <i name="WC">    100.00000000</i>
     <i type="int" name="INIMIX">     1</i>
     <i type="int" name="MIXPRE">     1</i>
     <i type="int" name="MREMOVE">     5</i>
    </separator>
   </separator>
   <separator name="electronic dipolcorrection" >
    <i type="logical" name="LDIPOL"> F  </i>
    <i type="logical" name="LMONO"> F  </i>
    <i type="int" name="IDIPOL">     0</i>
    <i name="EPSILON">      1.00000000</i>
    <v name="DIPOL">   -100.00000000   -100.00000000   -100.00000000</v>
    <i name="EFIELD">      0.00000000</i>
   </separator>
  </separator>
  <separator name="grids" >
   <i type="int" name="NGX">    24</i>
   <i type="int" name="NGY">    24</i>
   <i type="int" name="NGZ">    24</i>
   <i type="int" name="NGXF">    48</i>
   <i type="int" name="NGYF">    48</i>
   <i type="int" name="NGZF">    48</i>
   <i type="logical" name="ADDGRID"> F  </i>
  </separator>
  <separator name="ionic" >
   <i type="int" name="NSW">     0</i>
   <i type="int" name="IBRION">    -1</i>
   <i type="int" name="MDALGO">     0</i>
   <i type="int" name="ISIF">     2</i>
   <i name="PSTRESS">      0.00000000</i>
   <i name="EDIFFG">      0.00010000</i>
   <i type="int" name="NFREE">     0</i>
   <i name="POTIM">      0.50000000</i>
   <i name="SMASS">     -3.00000000</i>
   <i name="SCALEE">      1.00000000</i>
  </separator>
  <separator name="ionic md" >
   <i name="TEBEG">      0.00010000</i>
   <i name="TEEND">      0.00010000</i>
   <i type="int" name="NBLOCK">     1</i>
   <i type="int" name="KBLOCK">     1</i>
   <i type="int" name="NPACO">   256</i>
   <i name="APACO">     16.00000000</i>
  </separator>
  <separator name="symmetry" >
   <i type="int" name="ISYM">     2</i>
   <i name="SYMPREC">      0.00001000</i>
  </separator>
  <separator name="dos" >
   <i type="int" name="LORBIT">    11</i>
   <v name="RWIGS">     -1.00000000     -1.00000000</v>
   <i type="int" name="NEDOS">   301</i>
   <i name="EMIN">     10.00000000</i>
   <i name="EMAX">    -10.00000000</i>
   <i name="EFERMI">      0.00000000</i>
  </separator>
  <separator name="writing" >
   <i type="int" name="NWRITE">     2</i>
   <i type="logical" name="LWAVE"> T  </i>
   <i type="logical" name="LDOWNSAMPLE"> F  </i>
   <i type="logical" name="LCHARG"> T  </i>
   <i type="logical" name="LPARD"> F  </i>
   <i type="logical" name="LVTOT"> F  </i>
   <i type="logical" name="LVHAR"> F  </i>
   <i type="logical" name="LELF"> F  </i>
   <i type="logical" name="LOPTICS"> F  </i>
   <v name="STM">      0.00000000      0.00000000      0.00000000      0.00000000      0.00000000      0.00000000      0.00000000</v>
  </separator>
  <separator name="performance" >
   <i type="int" name="NPAR">     3</i>
   <i type="int" name="NSIM">     4</i>
   <i type="int" name="NBLK">    -1</i>
   <i type="logical" name="LPLANE"> T  </i>
   <i type="logical" name="LSCALAPACK"> T  </i>
   <i type="logical" name="LSCAAWARE"> F  </i>
   <i type="logical" name="LSCALU"> F  </i>
   <i type="logical" name="LASYNC"> F  </i>
   <i type="logical" name="LORBITALREAL"> F  </i>
  </separator>
  <separator name="miscellaneous" >
   <i type="int" name="IDIOT">     3</i>
   <i type="int" name="ISPECIAL">     0</i>
   <i type="logical" name="LMUSIC"> F  </i>
   <v name="POMASS">    114.82000000     74.92200000</v>
   <v name="DARWINR">      0.00000000      0.00000000</v>
   <v name="DARWINV">      1.00000000      1.00000000</v>
   <i type="logical" name="LCORR"> T  </i>
  </separator>
  <i type="logical" name="GGA_COMPAT"> T  </i>
  <i type="logical" name="LBERRY"> F  </i>
  <i type="int" name="ICORELEVEL">     0</i>
  <i type="logical" name="LDAU"> T  </i>
  <v type="int" name="LDAUTYPE">     2</v>
  <v type="int" name="LDAUL">     1</v>
  <v name="LDAUU">     -4.19419419</v>
  <v name="LDAUJ">      0.00000000</v>
  <i type="int" name="LDAUPRINT">     0</i>
  <i type="int" name="I_CONSTRAINED_M">     0</i>
  <separator name="electronic exchange-correlation" >
   <i type="string" name="GGA">PE</i>
   <i type="int" name="VOSKOWN">     0</i>
   <i type="logical" name="LHFCALC"> F  </i>
   <i type="string" name="PRECFOCK"></i>
   <i type="logical" name="LSYMGRAD"> F  </i>
   <i type="logical" name="LHFONE"> F  </i>
   <i type="logical" name="LRHFCALC"> F  </i>
   <i type="logical" name="LTHOMAS"> F  </i>
   <i type="logical" name="LMODELHF"> F  </i>
   <i name="ENCUT4O">     -1.00000000</i>
   <i type="int" name="EXXOEP">     0</i>
   <i type="int" name="FOURORBIT">     0</i>
   <i name="AEXX">      0.00000000</i>
   <i name="HFALPHA">      0.00000000</i>
   <i name="MCALPHA">      0.00000000</i>
   <i name="ALDAX">      1.00000000</i>
   <i name="AGGAX">      1.00000000</i>
   <i name="ALDAC">      1.00000000</i>
   <i name="AGGAC">      1.00000000</i>
   <i type="int" name="NKREDX">     1</i>
   <i type="int" name="NKREDY">     1</i>
   <i type="int" name="NKREDZ">     1</i>
   <i type="logical" name="SHIFTRED"> F  </i>
   <i type="logical" name="ODDONLY"> F  </i>
   <i type="logical" name="EVENONLY"> F  </i>
   <i type="int" name="LMAXFOCK">     0</i>
   <i type="int" name="NMAXFOCKAE">     0</i>
   <i type="logical" name="LFOCKAEDFT"> F  </i>
   <i name="HFSCREEN">      0.00000000</i>
   <i name="HFSCREENC">      0.00000000</i>
   <i type="int" name="NBANDSGWLOW">     0</i>
  </separator>
  <separator name="vdW DFT" >
   <i type="logical" name="LUSE_VDW"> F  </i>
   <i name="Zab_VDW">     -0.84910000</i>
   <i name="PARAM1">      0.12340000</i>
   <i name="PARAM2">      1.00000000</i>
   <i name="PARAM3">      0.00000000</i>
  </separator>
  <separator name="model GW" >
   <i type="int" name="MODEL_GW">     0</i>
   <i name="MODEL_EPS0">     16.67765919</i>
   <i name="MODEL_ALPHA">      1.00000000</i>
  </separator>
  <separator name="linear response parameters" >
   <i type="logical" name="LEPSILON"> F  </i>
   <i type="logical" name="LRPA"> F  </i>
   <i type="logical" name="LNABLA"> F  </i>
   <i type="logical" name="LVEL"> F  </i>
   <i type="int" name="KINTER">     0</i>
   <i name="CSHIFT">      0.10000000</i>
   <i name="OMEGAMAX">     -1.00000000</i>
   <i name="DEG_THRESHOLD">      0.00200000</i>
   <i name="RTIME">     -0.10000000</i>
   <i name="WPLASMAI">      0.00000000</i>
   <v name="DFIELD">      0.00000000      0.00000000      0.00000000</v>
   <v name="WPLASMA">      0.00000000      0.00000000      0.00000000      0.00000000      0.00000000      0.00000000      0.00000000      0.00000000      0.00000000</v>
  </separator>
  <separator name="orbital magnetization" >
   <i type="logical" name="NUCIND"> F  </i>
   <v name="MAGPOS">      0.00000000      0.00000000      0.00000000</v>
   <i type="logical" name="LNICSALL"> T  </i>
   <i type="logical" name="ORBITALMAG"> F  </i>
   <i type="logical" name="LMAGBLOCH"> F  </i>
   <i type="logical" name="LCHIMAG"> F  </i>
   <i type="logical" name="LGAUGE"> T  </i>
   <i type="int" name="MAGATOM">     0</i>
   <v name="MAGDIPOL">      0.00000000      0.00000000      0.00000000</v>
   <v name="AVECCONST">      0.00000000      0.00000000      0.00000000</v>
  </separator>
  <separator name="response functions" >
   <i type="logical" name="LADDER"> F  </i>
   <i type="logical" name="LRPAFORCE"> F  </i>
   <i type="logical" name="LFXC"> F  </i>
   <i type="logical" name="LHARTREE"> T  </i>
   <i type="int" name="IBSE">     0</i>
   <v type="int" name="KPOINT">    -1     0     0     0</v>
   <i type="logical" name="LTCTE"> F  </i>
   <i type="logical" name="LTETE"> F  </i>
   <i type="logical" name="LTRIPLET"> F  </i>
   <i type="logical" name="LFXCEPS"> F  </i>
   <i type="logical" name="LFXHEG"> F  </i>
   <i type="int" name="NATURALO">     2</i>
   <i type="logical" name="L2ORDER"> F  </i>
   <i type="logical" name="LMP2LT"> F  </i>
   <i type="logical" name="LUSEW"> F  </i>
   <i name="ENCUTGW">     -2.00000000</i>
   <i name="ENCUTGWSOFT">     -2.00000000</i>
   <i name="ENCUTLF">     -1.00000000</i>
   <i type="int" name="LMAXMP2">    -1</i>
   <i name="SCISSOR">      0.00000000</i>
   <i type="int" name="NOMEGA">     0</i>
   <i type="int" name="NOMEGAR">     0</i>
   <i type="int" name="NBANDSGW">    -1</i>
   <i type="int" name="NBANDSO">    -1</i>
   <i type="int" name="NBANDSV">    -1</i>
   <i type="int" name="NELM">     1</i>
   <i type="int" name="NELMHF">     1</i>
   <i type="int" name="DIM">     3</i>
   <i type="int" name="ANTIRES">     0</i>
   <i name="OMEGAMAX">    -30.00000000</i>
   <i name="OMEGAMIN">    -30.00000000</i>
   <i name="OMEGATL">   -200.00000000</i>
   <i type="int" name="OMEGAGRID">   140</i>
   <i name="CSHIFT">     -0.10000000</i>
   <i type="logical" name="SELFENERGY"> F  </i>
   <i type="logical" name="LSPECTRAL"> F  </i>
   <i type="logical" name="LSPECTRALGW"> F  </i>
   <i type="logical" name="LSINGLES"> F  </i>
   <i type="logical" name="LFERMIGW"> F  </i>
   <i type="logical" name="ODDONLYGW"> F  </i>
   <i type="logical" name="EVENONLYGW"> F  </i>
   <i type="int" name="NKREDLFX">     1</i>
   <i type="int" name="NKREDLFY">     1</i>
   <i type="int" name="NKREDLFZ">     1</i>
   <i type="int" name="MAXMEM">  2800</i>
   <i type="int" name="TELESCOPE">     0</i>
   <i type="int" name="TAUPAR">     1</i>
   <i type="int" name="OMEGAPAR">    -1</i>
   <i name="LAMBDA">      1.00000000</i>
  </separator>
  <separator name="External order field" >
   <i name="OFIELD_KAPPA">      0.00000000</i>
   <v name="OFIELD_K">      0.00000000      0.00000000      0.00000000</v>
   <i name="OFIELD_Q6_NEAR">      0.00000000</i>
   <i name="OFIELD_Q6_FAR">      0.00000000</i>
   <i name="OFIELD_A">      0.00000000</i>
  </separator>
 </parameters>
 <atominfo>
  <atoms>       2 </atoms>
  <types>       2 </types>
  <array name="atoms" >
   <dimension dim="1">ion</dimension>
   <field type="string">element</field>
   <field type="int">atomtype</field>
   <set>
    <rc><c>In</c><c>   1</c></rc>
    <rc><c>As</c><c>   2</c></rc>
   </set>
  </array>
  <array name="atomtypes" >
   <dimension dim="1">type</dimension>
   <field type="int">atomspertype</field>
   <field type="string">element</field>
   <field>mass</field>
   <field>valence</field>
   <field type="string">pseudopotential</field>
   <set>
    <rc><c>   1</c><c>In</c><c>    114.82000000</c><c>     13.00000000</c><c>  PAW_PBE In_d 06Sep2000                </c></rc>
    <rc><c>   1</c><c>As</c><c>     74.92200000</c><c>      5.00000000</c><c>  PAW_PBE As 22Sep2009                  </c></rc>
   </set>
  </array>
 </atominfo>
 <structure name="initialpos" >
  <crystal>
   <varray name="basis" >
    <v>       0.00000000       3.02920000       3.02920000 </v>
    <v>       3.02920000       0.00000000       3.02920000 </v>
    <v>       3.02920000       3.02920000       0.00000000 </v>
   </varray>
   <i name="volume">     55.59219731 </i>
   <varray name="rec_basis" >
    <v>      -0.16506008       0.16506008       0.16506008 </v>
    <v>       0.16506008      -0.16506008       0.16506008 </v>
    <v>       0.16506008       0.16506008      -0.16506008 </v>
   </varray>
  </crystal>
  <varray name="positions" >
   <v>       0.00000000       0.00000000       0.00000000 </v>
   <v>       0.75000000       0.75000000       0.75000000 </v>
  </varray>
 </structure>
 <calculation>
  <scstep>
   <time name="total">    0.11    0.11</time>
   <energy>
    <i name="alphaZ">     38.22227472 </i>
    <i name="ewald">  -1180.94574891 </i>
    <i name="hartreedc">   -574.28475018 </i>
    <i name="XCdc">     30.05432960 </i>
    <i name="pawpsdc">   1528.00464014 </i>
    <i name="pawaedc">  -1497.75096141 </i>
    <i name="eentropy">     -0.00008400 </i>
    <i name="bandstr">     97.21461585 </i>
    <i name="atom">   1747.01046045 </i>
    <i name="e_fr_energy">    187.52477625 </i>
    <i name="e_wo_entrp">    187.52486025 </i>
    <i name="e_0_energy">    187.52480425 </i>
   </energy>
  </scstep>
  <scstep>
   <time name="total">    0.07    0.07</time>
   <energy>
    <i name="e_fr_energy">     51.51590011 </i>
    <i name="e_wo_entrp">     51.51610511 </i>
    <i name="e_0_energy">     51.51596844 </i>
   </energy>
  </scstep>
  <scstep>
   <time name="total">    0.06    0.06</time>
   <energy>
    <i name="e_fr_energy">      7.28104935 </i>
    <i name="e_wo_entrp">      7.28100983 </i>
    <i name="e_0_energy">      7.28103617 </i>
   </energy>
  </scstep>
  <scstep>
   <time name="total">    0.08    0.08</time>
   <energy>
    <i name="e_fr_energy">     -8.92416915 </i>
    <i name="e_wo_entrp">     -8.92411207 </i>
    <i name="e_0_energy">     -8.92415012 </i>
   </energy>
  </scstep>
  <scstep>
   <time name="total">    0.09    0.09</time>
   <energy>
    <i name="e_fr_energy">    -11.39469980 </i>
    <i name="e_wo_entrp">    -11.39470403 </i>
    <i name="e_0_energy">    -11.39470121 </i>
   </energy>
  </scstep>
  <scstep>
   <time name="total">    0.07    0.07</time>
   <energy>
    <i name="e_fr_energy">    -10.29092381 </i>
    <i name="e_wo_entrp">    -10.29092803 </i>
    <i name="e_0_energy">    -10.29092521 </i>
   </energy>
  </scstep>
  <scstep>
   <time name="total">    0.07    0.07</time>
   <energy>
    <i name="e_fr_energy">    -10.96004435 </i>
    <i name="e_wo_entrp">    -10.96004857 </i>
    <i name="e_0_energy">    -10.96004575 </i>
   </energy>
  </scstep>
  <scstep>
   <time name="total">    0.07    0.07</time>
   <energy>
    <i name="e_fr_energy">    -11.32261836 </i>
    <i name="e_wo_entrp">    -11.32262259 </i>
    <i name="e_0_energy">    -11.32261977 </i>
   </energy>
  </scstep>
  <scstep>
   <time name="total">    0.07    0.07</time>
   <energy>
    <i name="e_fr_energy">    -11.46815602 </i>
    <i name="e_wo_entrp">    -11.46816024 </i>
    <i name="e_0_energy">    -11.46815743 </i>
   </energy>
  </scstep>
  <scstep>
   <time name="total">    0.07    0.07</time>
   <energy>
    <i name="e_fr_energy">    -11.53440398 </i>
    <i name="e_wo_entrp">    -11.53440821 </i>
    <i name="e_0_energy">    -11.53440539 </i>
   </energy>
  </scstep>
  <scstep>
   <time name="total">    0.07    0.07</time>
   <energy>
    <i name="e_fr_energy">    -11.56781993 </i>
    <i name="e_wo_entrp">    -11.56782415 </i>
    <i name="e_0_energy">    -11.56782134 </i>
   </energy>
  </scstep>
  <scstep>
   <time name="total">    0.07    0.07</time>
   <energy>
    <i name="e_fr_energy">    -11.58255615 </i>
    <i name="e_wo_entrp">    -11.58256051 </i>
    <i name="e_0_energy">    -11.58255760 </i>
   </energy>
  </scstep>
  <scstep>
   <time name="total">    0.07    0.07</time>
   <energy>
    <i name="e_fr_energy">    -11.58904157 </i>
    <i name="e_wo_entrp">    -11.58904867 </i>
    <i name="e_0_energy">    -11.58904394 </i>
   </energy>
  </scstep>
  <scstep>
   <time name="total">    0.08    0.08</time>
   <energy>
    <i name="e_fr_energy">    -11.59218942 </i>
    <i name="e_wo_entrp">    -11.59220855 </i>
    <i name="e_0_energy">    -11.59219579 </i>
   </energy>
  </scstep>
  <scstep>
   <time name="total">    0.07    0.07</time>
   <energy>
    <i name="e_fr_energy">    -11.59381447 </i>
    <i name="e_wo_entrp">    -11.59379640 </i>
    <i name="e_0_energy">    -11.59380845 </i>
   </energy>
  </scstep>
  <scstep>
   <time name="total">    0.07    0.07</time>
   <energy>
    <i name="e_fr_energy">    -11.59486957 </i>
    <i name="e_wo_entrp">    -11.59484337 </i>
    <i name="e_0_energy">    -11.59486083 </i>
   </energy>
  </scstep>
  <scstep>
   <time name="total">    0.07    0.07</time>
   <energy>
    <i name="e_fr_energy">    -11.59552119 </i>
    <i name="e_wo_entrp">    -11.59550528 </i>
    <i name="e_0_energy">    -11.59551588 </i>
   </energy>
  </scstep>
  <scstep>
   <time name="total">    0.07    0.07</time>
   <energy>
    <i name="e_fr_energy">    -11.59578839 </i>
    <i name="e_wo_entrp">    -11.59578063 </i>
    <i name="e_0_energy">    -11.59578581 </i>
   </energy>
  </scstep>
  <scstep>
   <time name="total">    0.07    0.07</time>
   <energy>
    <i name="e_fr_energy">    -11.59594299 </i>
    <i name="e_wo_entrp">    -11.59594926 </i>
    <i name="e_0_energy">    -11.59594508 </i>
   </energy>
  </scstep>
  <scstep>
   <time name="total">    0.07    0.07</time>
   <energy>
    <i name="e_fr_energy">    -11.59607526 </i>
    <i name="e_wo_entrp">    -11.59609842 </i>
    <i name="e_0_energy">    -11.59608298 </i>
   </energy>
  </scstep>
  <scstep>
   <time name="total">    0.07    0.07</time>
   <energy>
    <i name="e_fr_energy">    -11.59617327 </i>
    <i name="e_wo_entrp">    -11.59619622 </i>
    <i name="e_0_energy">    -11.59618092 </i>
   </energy>
  </scstep>
  <scstep>
   <time name="total">    0.07    0.07</time>
   <energy>
    <i name="e_fr_energy">    -11.59621789 </i>
    <i name="e_wo_entrp">    -11.59623404 </i>
    <i name="e_0_energy">    -11.59622327 </i>
   </energy>
  </scstep>
  <scstep>
   <time name="total">    0.07    0.07</time>
   <energy>
    <i name="e_fr_energy">    -11.59623378 </i>
    <i name="e_wo_entrp">    -11.59624754 </i>
    <i name="e_0_energy">    -11.59623837 </i>
   </energy>
  </scstep>
  <scstep>
   <time name="total">    0.08    0.08</time>
   <energy>
    <i name="alphaZ">     38.22227472 </i>
    <i name="ewald">  -1180.94574891 </i>
    <i name="hartreedc">   -572.34392858 </i>
    <i name="XCdc">     30.34339481 </i>
    <i name="pawpsdc">  10178.25166476 </i>
    <i name="pawaedc"> -10149.84634384 </i>
    <i name="eentropy">      0.00001288 </i>
    <i name="bandstr">   -102.28802673 </i>
    <i name="atom">   1747.01046045 </i>
    <i name="e_fr_energy">    -11.59623955 </i>
    <i name="e_wo_entrp">    -11.59625243 </i>
    <i name="e_0_energy">    -11.59624384 </i>
   </energy>
  </scstep>
  <structure>
   <crystal>
    <varray name="basis" >
     <v>       0.00000000       3.02920000       3.02920000 </v>
     <v>       3.02920000       0.00000000       3.02920000 </v>
     <v>       3.02920000       3.02920000       0.00000000 </v>
    </varray>
    <i name="volume">     55.59219731 </i>
    <varray name="rec_basis" >
     <v>      -0.16506008       0.16506008       0.16506008 </v>
     <v>       0.16506008      -0.16506008       0.16506008 </v>
     <v>       0.16506008       0.16506008      -0.16506008 </v>
    </varray>
   </crystal>
   <varray name="positions" >
    <v>       0.00000000       0.00000000       0.00000000 </v>
    <v>       0.75000000       0.75000000       0.75000000 </v>
   </varray>
  </structure>
  <varray name="forces" >
   <v>      -0.00000000      -0.00000000      -0.00000000 </v>
   <v>       0.00000000       0.00000000       0.00000000 </v>
  </varray>
  <varray name="stress" >
   <v>     -26.54315892      -0.00000000       0.00000000 </v>
   <v>      -0.00000000     -26.54315892      -0.00000000 </v>
   <v>       0.00000000      -0.00000000     -26.54315892 </v>
  </varray>
  <energy>
   <i name="e_fr_energy">    -11.59623955 </i>
   <i name="e_wo_entrp">    -11.59624384 </i>
   <i name="e_0_energy">      0.00001288 </i>
  </energy>
  <time name="totalsc">    2.26    2.57</time>
  <eigenvalues>
   <array>
    <dimension dim="1">band</dimension>
    <dimension dim="2">kpoint</dimension>
    <dimension dim="3">spin</dimension>
    <field>eigene</field>
    <field>occ</field>
    <set>
     <set comment="spin 1">
      <set comment="kpoint 1">
       <r>  -10.2731    1.0000 </r>
       <r>  -10.2731    1.0000 </r>
       <r>  -10.2731    1.0000 </r>
       <r>  -10.2731    1.0000 </r>
       <r>   -9.4823    1.0000 </r>
       <r>   -9.4823    1.0000 </r>
       <r>   -9.3963    1.0000 </r>
       <r>   -9.3963    1.0000 </r>
       <r>   -9.3963    1.0000 </r>
       <r>   -9.3963    1.0000 </r>
       <r>   -7.3128    1.0000 </r>
       <r>   -7.3128    1.0000 </r>
       <r>    3.8071    1.0000 </r>
       <r>    3.8071    1.0000 </r>
       <r>    4.1267    1.0017 </r>
       <r>    4.1267    1.0017 </r>
       <r>    4.1267    1.0019 </r>
       <r>    4.1269    1.0036 </r>
       <r>    4.2888    0.0025 </r>
       <r>    4.2890   -0.0114 </r>
       <r>    7.8523    0.0000 </r>
      </set>
      <set comment="kpoint 2">
       <r>  -10.2776    1.0000 </r>
       <r>  -10.2776    1.0000 </r>
       <r>  -10.2755    1.0000 </r>
       <r>  -10.2675    1.0000 </r>
       <r>   -9.4869    1.0000 </r>
       <r>   -9.4869    1.0000 </r>
       <r>   -9.4059    1.0000 </r>
       <r>   -9.4059    1.0000 </r>
       <r>   -9.3952    1.0000 </r>
       <r>   -9.3853    1.0000 </r>
       <r>   -7.1115    1.0000 </r>
       <r>   -7.1115    1.0000 </r>
       <r>    2.0978    1.0000 </r>
       <r>    2.0978    1.0000 </r>
       <r>    3.6553    1.0000 </r>
       <r>    3.6553    1.0000 </r>
       <r>    3.8671    1.0000 </r>
       <r>    3.8770    1.0000 </r>
       <r>    5.4246   -0.0000 </r>
       <r>    5.4246   -0.0000 </r>
       <r>    8.0439    0.0000 </r>
      </set>
      <set comment="kpoint 3">
       <r>  -10.2889    1.0000 </r>
       <r>  -10.2889    1.0000 </r>
       <r>  -10.2730    1.0000 </r>
       <r>  -10.2632    1.0000 </r>
       <r>   -9.4957    1.0000 </r>
       <r>   -9.4957    1.0000 </r>
       <r>   -9.4227    1.0000 </r>
       <r>   -9.4227    1.0000 </r>
       <r>   -9.3820    1.0000 </r>
       <r>   -9.3698    1.0000 </r>
       <r>   -6.5790    1.0000 </r>
       <r>   -6.5790    1.0000 </r>
       <r>    0.1095    1.0000 </r>
       <r>    0.1095    1.0000 </r>
       <r>    3.1997    1.0000 </r>
       <r>    3.1997    1.0000 </r>
       <r>    3.4175    1.0000 </r>
       <r>    3.4282    1.0000 </r>
       <r>    5.4852   -0.0000 </r>
       <r>    5.4852   -0.0000 </r>
       <r>    8.6307    0.0000 </r>
      </set>
      <set comment="kpoint 4">
       <r>  -10.2992    1.0000 </r>
       <r>  -10.2992    1.0000 </r>
       <r>  -10.2679    1.0000 </r>
       <r>  -10.2635    1.0000 </r>
       <r>   -9.5012    1.0000 </r>
       <r>   -9.5012    1.0000 </r>
       <r>   -9.4325    1.0000 </r>
       <r>   -9.4325    1.0000 </r>
       <r>   -9.3666    1.0000 </r>
       <r>   -9.3612    1.0000 </r>
       <r>   -6.0041    1.0000 </r>
       <r>   -6.0041    1.0000 </r>
       <r>   -1.2479    1.0000 </r>
       <r>   -1.2479    1.0000 </r>
       <r>    2.9083    1.0000 </r>
       <r>    2.9083    1.0000 </r>
       <r>    3.1317    1.0000 </r>
       <r>    3.1361    1.0000 </r>
       <r>    5.3331   -0.0000 </r>
       <r>    5.3331   -0.0000 </r>
       <r>    8.6887    0.0000 </r>
      </set>
      <set comment="kpoint 5">
       <r>  -10.2992    1.0000 </r>
       <r>  -10.2992    1.0000 </r>
       <r>  -10.2679    1.0000 </r>
       <r>  -10.2635    1.0000 </r>
       <r>   -9.5012    1.0000 </r>
       <r>   -9.5012    1.0000 </r>
       <r>   -9.4325    1.0000 </r>
       <r>   -9.4325    1.0000 </r>
       <r>   -9.3666    1.0000 </r>
       <r>   -9.3612    1.0000 </r>
       <r>   -6.0041    1.0000 </r>
       <r>   -6.0041    1.0000 </r>
       <r>   -1.2479    1.0000 </r>
       <r>   -1.2479    1.0000 </r>
       <r>    2.9083    1.0000 </r>
       <r>    2.9083    1.0000 </r>
       <r>    3.1317    1.0000 </r>
       <r>    3.1361    1.0000 </r>
       <r>    5.3331   -0.0000 </r>
       <r>    5.3331   -0.0000 </r>
       <r>    8.7153    0.0000 </r>
      </set>
      <set comment="kpoint 6">
       <r>  -10.2889    1.0000 </r>
       <r>  -10.2889    1.0000 </r>
       <r>  -10.2730    1.0000 </r>
       <r>  -10.2632    1.0000 </r>
       <r>   -9.4957    1.0000 </r>
       <r>   -9.4957    1.0000 </r>
       <r>   -9.4227    1.0000 </r>
       <r>   -9.4227    1.0000 </r>
       <r>   -9.3820    1.0000 </r>
       <r>   -9.3698    1.0000 </r>
       <r>   -6.5790    1.0000 </r>
       <r>   -6.5790    1.0000 </r>
       <r>    0.1095    1.0000 </r>
       <r>    0.1095    1.0000 </r>
       <r>    3.1997    1.0000 </r>
       <r>    3.1997    1.0000 </r>
       <r>    3.4175    1.0000 </r>
       <r>    3.4282    1.0000 </r>
       <r>    5.4852   -0.0000 </r>
       <r>    5.4852   -0.0000 </r>
       <r>    8.6407    0.0000 </r>
      </set>
      <set comment="kpoint 7">
       <r>  -10.2776    1.0000 </r>
       <r>  -10.2776    1.0000 </r>
       <r>  -10.2755    1.0000 </r>
       <r>  -10.2675    1.0000 </r>
       <r>   -9.4869    1.0000 </r>
       <r>   -9.4869    1.0000 </r>
       <r>   -9.4059    1.0000 </r>
       <r>   -9.4059    1.0000 </r>
       <r>   -9.3952    1.0000 </r>
       <r>   -9.3853    1.0000 </r>
       <r>   -7.1115    1.0000 </r>
       <r>   -7.1115    1.0000 </r>
       <r>    2.0978    1.0000 </r>
       <r>    2.0978    1.0000 </r>
       <r>    3.6553    1.0000 </r>
       <r>    3.6553    1.0000 </r>
       <r>    3.8671    1.0000 </r>
       <r>    3.8770    1.0000 </r>
       <r>    5.4246   -0.0000 </r>
       <r>    5.4246   -0.0000 </r>
       <r>    8.0938    0.0000 </r>
      </set>
      <set comment="kpoint 8">
       <r>  -10.2844    1.0000 </r>
       <r>  -10.2844    1.0000 </r>
       <r>  -10.2655    1.0000 </r>
       <r>  -10.2655    1.0000 </r>
       <r>   -9.4903    1.0000 </r>
       <r>   -9.4903    1.0000 </r>
       <r>   -9.4002    1.0000 </r>
       <r>   -9.4002    1.0000 </r>
       <r>   -9.3941    1.0000 </r>
       <r>   -9.3941    1.0000 </r>
       <r>   -7.0455    1.0000 </r>
       <r>   -7.0455    1.0000 </r>
       <r>    2.0815    1.0000 </r>
       <r>    2.0815    1.0000 </r>
       <r>    3.2825    1.0000 </r>
       <r>    3.2825    1.0000 </r>
       <r>    3.4077    1.0000 </r>
       <r>    3.4077    1.0000 </r>
       <r>    6.1614    0.0000 </r>
       <r>    6.7450    0.0000 </r>
       <r>    7.1182    0.0000 </r>
      </set>
      <set comment="kpoint 9">
       <r>  -10.3045    1.0000 </r>
       <r>  -10.2874    1.0000 </r>
       <r>  -10.2637    1.0000 </r>
       <r>  -10.2556    1.0000 </r>
       <r>   -9.5176    1.0000 </r>
       <r>   -9.4836    1.0000 </r>
       <r>   -9.4122    1.0000 </r>
       <r>   -9.4067    1.0000 </r>
       <r>   -9.3858    1.0000 </r>
       <r>   -9.3793    1.0000 </r>
       <r>   -6.6255    1.0000 </r>
       <r>   -6.6191    1.0000 </r>
       <r>    0.5891    1.0000 </r>
       <r>    0.5894    1.0000 </r>
       <r>    2.7512    1.0000 </r>
       <r>    2.7831    1.0000 </r>
       <r>    2.9172    1.0000 </r>
       <r>    2.9230    1.0000 </r>
       <r>    6.4996    0.0000 </r>
       <r>    6.5269    0.0000 </r>
       <r>    7.4357    0.0000 </r>
      </set>
      <set comment="kpoint 10">
       <r>  -10.3247    1.0000 </r>
       <r>  -10.2897    1.0000 </r>
       <r>  -10.2604    1.0000 </r>
       <r>  -10.2496    1.0000 </r>
       <r>   -9.5436    1.0000 </r>
       <r>   -9.4714    1.0000 </r>
       <r>   -9.4274    1.0000 </r>
       <r>   -9.4152    1.0000 </r>
       <r>   -9.3704    1.0000 </r>
       <r>   -9.3673    1.0000 </r>
       <r>   -6.0378    1.0000 </r>
       <r>   -6.0280    1.0000 </r>
       <r>   -0.8736    1.0000 </r>
       <r>   -0.8584    1.0000 </r>
       <r>    2.2190    1.0000 </r>
       <r>    2.2502    1.0000 </r>
       <r>    2.6602    1.0000 </r>
       <r>    2.6636    1.0000 </r>
       <r>    6.3396    0.0000 </r>
       <r>    6.3580    0.0000 </r>
       <r>    8.2491    0.0000 </r>
      </set>
      <set comment="kpoint 11">
       <r>  -10.3309    1.0000 </r>
       <r>  -10.2912    1.0000 </r>
       <r>  -10.2573    1.0000 </r>
       <r>  -10.2488    1.0000 </r>
       <r>   -9.5520    1.0000 </r>
       <r>   -9.4622    1.0000 </r>
       <r>   -9.4380    1.0000 </r>
       <r>   -9.4175    1.0000 </r>
       <r>   -9.3654    1.0000 </r>
       <r>   -9.3632    1.0000 </r>
       <r>   -5.7993    1.0000 </r>
       <r>   -5.7891    1.0000 </r>
       <r>   -1.3452    1.0000 </r>
       <r>   -1.3220    1.0000 </r>
       <r>    1.9069    1.0000 </r>
       <r>    1.9283    1.0000 </r>
       <r>    2.7751    1.0000 </r>
       <r>    2.7829    1.0000 </r>
       <r>    6.2876    0.0000 </r>
       <r>    6.2926    0.0000 </r>
       <r>    8.5095    0.0000 </r>
      </set>
      <set comment="kpoint 12">
       <r>  -10.3185    1.0000 </r>
       <r>  -10.2898    1.0000 </r>
       <r>  -10.2574    1.0000 </r>
       <r>  -10.2538    1.0000 </r>
       <r>   -9.5397    1.0000 </r>
       <r>   -9.4669    1.0000 </r>
       <r>   -9.4324    1.0000 </r>
       <r>   -9.4135    1.0000 </r>
       <r>   -9.3750    1.0000 </r>
       <r>   -9.3686    1.0000 </r>
       <r>   -6.2338    1.0000 </r>
       <r>   -6.2222    1.0000 </r>
       <r>   -0.4490    1.0000 </r>
       <r>   -0.4326    1.0000 </r>
       <r>    1.9888    1.0000 </r>
       <r>    2.0080    1.0000 </r>
       <r>    3.1860    1.0000 </r>
       <r>    3.1984    1.0000 </r>
       <r>    6.3647    0.0000 </r>
       <r>    6.3668    0.0000 </r>
       <r>    8.7799    0.0000 </r>
      </set>
      <set comment="kpoint 13">
       <r>  -10.2952    1.0000 </r>
       <r>  -10.2851    1.0000 </r>
       <r>  -10.2642    1.0000 </r>
       <r>  -10.2619    1.0000 </r>
       <r>   -9.5114    1.0000 </r>
       <r>   -9.4776    1.0000 </r>
       <r>   -9.4178    1.0000 </r>
       <r>   -9.4072    1.0000 </r>
       <r>   -9.3886    1.0000 </r>
       <r>   -9.3795    1.0000 </r>
       <r>   -6.8023    1.0000 </r>
       <r>   -6.7949    1.0000 </r>
       <r>    1.0321    1.0000 </r>
       <r>    1.0336    1.0000 </r>
       <r>    2.6392    1.0000 </r>
       <r>    2.6687    1.0000 </r>
       <r>    3.6656    1.0000 </r>
       <r>    3.6809    1.0000 </r>
       <r>    6.1783    0.0000 </r>
       <r>    6.2914    0.0000 </r>
       <r>    8.2405    0.0000 </r>
      </set>
      <set comment="kpoint 14">
       <r>  -10.3089    1.0000 </r>
       <r>  -10.3089    1.0000 </r>
       <r>  -10.2507    1.0000 </r>
       <r>  -10.2507    1.0000 </r>
       <r>   -9.5117    1.0000 </r>
       <r>   -9.5117    1.0000 </r>
       <r>   -9.3935    1.0000 </r>
       <r>   -9.3935    1.0000 </r>
       <r>   -9.3859    1.0000 </r>
       <r>   -9.3859    1.0000 </r>
       <r>   -6.3389    1.0000 </r>
       <r>   -6.3389    1.0000 </r>
       <r>    0.1958    1.0000 </r>
       <r>    0.1958    1.0000 </r>
       <r>    2.3099    1.0000 </r>
       <r>    2.3099    1.0000 </r>
       <r>    2.3652    1.0000 </r>
       <r>    2.3652    1.0000 </r>
       <r>    6.2542    0.0000 </r>
       <r>    6.2545    0.0000 </r>
       <r>    7.0289    0.0000 </r>
      </set>
      <set comment="kpoint 15">
       <r>  -10.3365    1.0000 </r>
       <r>  -10.3033    1.0000 </r>
       <r>  -10.2488    1.0000 </r>
       <r>  -10.2390    1.0000 </r>
       <r>   -9.5528    1.0000 </r>
       <r>   -9.4880    1.0000 </r>
       <r>   -9.3998    1.0000 </r>
       <r>   -9.3951    1.0000 </r>
       <r>   -9.3795    1.0000 </r>
       <r>   -9.3690    1.0000 </r>
       <r>   -5.8539    1.0000 </r>
       <r>   -5.8459    1.0000 </r>
       <r>   -0.7449    1.0000 </r>
       <r>   -0.7284    1.0000 </r>
       <r>    1.6299    1.0000 </r>
       <r>    1.6584    1.0000 </r>
       <r>    2.0816    1.0000 </r>
       <r>    2.0840    1.0000 </r>
       <r>    6.3606    0.0000 </r>
       <r>    6.3965    0.0000 </r>
       <r>    7.3973    0.0000 </r>
      </set>
      <set comment="kpoint 16">
       <r>  -10.3513    1.0000 </r>
       <r>  -10.2972    1.0000 </r>
       <r>  -10.2482    1.0000 </r>
       <r>  -10.2303    1.0000 </r>
       <r>   -9.5801    1.0000 </r>
       <r>   -9.4660    1.0000 </r>
       <r>   -9.4097    1.0000 </r>
       <r>   -9.4036    1.0000 </r>
       <r>   -9.3724    1.0000 </r>
       <r>   -9.3628    1.0000 </r>
       <r>   -5.5255    1.0000 </r>
       <r>   -5.5155    1.0000 </r>
       <r>   -1.2631    1.0000 </r>
       <r>   -1.2191    1.0000 </r>
       <r>    0.9346    1.0000 </r>
       <r>    0.9498    1.0000 </r>
       <r>    2.1991    1.0000 </r>
       <r>    2.2048    1.0000 </r>
       <r>    6.5267    0.0000 </r>
       <r>    6.5320    0.0000 </r>
       <r>    8.8224    0.0000 </r>
      </set>
      <set comment="kpoint 17">
       <r>  -10.3443    1.0000 </r>
       <r>  -10.2938    1.0000 </r>
       <r>  -10.2509    1.0000 </r>
       <r>  -10.2336    1.0000 </r>
       <r>   -9.5756    1.0000 </r>
       <r>   -9.4538    1.0000 </r>
       <r>   -9.4298    1.0000 </r>
       <r>   -9.4062    1.0000 </r>
       <r>   -9.3697    1.0000 </r>
       <r>   -9.3661    1.0000 </r>
       <r>   -5.7456    1.0000 </r>
       <r>   -5.7318    1.0000 </r>
       <r>   -0.9706    1.0000 </r>
       <r>   -0.9253    1.0000 </r>
       <r>    0.9203    1.0000 </r>
       <r>    0.9272    1.0000 </r>
       <r>    2.6487    1.0000 </r>
       <r>    2.6583    1.0000 </r>
       <r>    6.7738    0.0000 </r>
       <r>    6.7861    0.0000 </r>
       <r>    9.4502    0.0000 </r>
      </set>
      <set comment="kpoint 18">
       <r>  -10.3185    1.0000 </r>
       <r>  -10.2898    1.0000 </r>
       <r>  -10.2574    1.0000 </r>
       <r>  -10.2538    1.0000 </r>
       <r>   -9.5397    1.0000 </r>
       <r>   -9.4669    1.0000 </r>
       <r>   -9.4324    1.0000 </r>
       <r>   -9.4135    1.0000 </r>
       <r>   -9.3750    1.0000 </r>
       <r>   -9.3686    1.0000 </r>
       <r>   -6.2338    1.0000 </r>
       <r>   -6.2222    1.0000 </r>
       <r>   -0.4490    1.0000 </r>
       <r>   -0.4326    1.0000 </r>
       <r>    1.9888    1.0000 </r>
       <r>    2.0080    1.0000 </r>
       <r>    3.1860    1.0000 </r>
       <r>    3.1984    1.0000 </r>
       <r>    6.3645    0.0000 </r>
       <r>    6.3669    0.0000 </r>
       <r>    8.9179    0.0000 </r>
      </set>
      <set comment="kpoint 19">
       <r>  -10.3289    1.0000 </r>
       <r>  -10.3289    1.0000 </r>
       <r>  -10.2396    1.0000 </r>
       <r>  -10.2396    1.0000 </r>
       <r>   -9.5258    1.0000 </r>
       <r>   -9.5258    1.0000 </r>
       <r>   -9.3915    1.0000 </r>
       <r>   -9.3915    1.0000 </r>
       <r>   -9.3675    1.0000 </r>
       <r>   -9.3675    1.0000 </r>
       <r>   -5.5497    1.0000 </r>
       <r>   -5.5497    1.0000 </r>
       <r>   -1.1958    1.0000 </r>
       <r>   -1.1958    1.0000 </r>
       <r>    1.7318    1.0000 </r>
       <r>    1.7318    1.0000 </r>
       <r>    1.7477    1.0000 </r>
       <r>    1.7477    1.0000 </r>
       <r>    5.8385    0.0000 </r>
       <r>    5.8425    0.0000 </r>
       <r>    6.5655    0.0000 </r>
      </set>
      <set comment="kpoint 20">
       <r>  -10.3501    1.0000 </r>
       <r>  -10.3108    1.0000 </r>
       <r>  -10.2424    1.0000 </r>
       <r>  -10.2319    1.0000 </r>
       <r>   -9.5658    1.0000 </r>
       <r>   -9.4904    1.0000 </r>
       <r>   -9.3968    1.0000 </r>
       <r>   -9.3833    1.0000 </r>
       <r>   -9.3808    1.0000 </r>
       <r>   -9.3596    1.0000 </r>
       <r>   -5.3875    1.0000 </r>
       <r>   -5.3825    1.0000 </r>
       <r>   -1.3907    1.0000 </r>
       <r>   -1.3620    1.0000 </r>
       <r>    1.1886    1.0000 </r>
       <r>    1.2096    1.0000 </r>
       <r>    1.7870    1.0000 </r>
       <r>    1.7897    1.0000 </r>
       <r>    6.1238    0.0000 </r>
       <r>    6.1553    0.0000 </r>
       <r>    7.1809    0.0000 </r>
      </set>
      <set comment="kpoint 21">
       <r>  -10.3513    1.0000 </r>
       <r>  -10.2972    1.0000 </r>
       <r>  -10.2482    1.0000 </r>
       <r>  -10.2303    1.0000 </r>
       <r>   -9.5801    1.0000 </r>
       <r>   -9.4660    1.0000 </r>
       <r>   -9.4097    1.0000 </r>
       <r>   -9.4036    1.0000 </r>
       <r>   -9.3724    1.0000 </r>
       <r>   -9.3628    1.0000 </r>
       <r>   -5.5255    1.0000 </r>
       <r>   -5.5155    1.0000 </r>
       <r>   -1.2631    1.0000 </r>
       <r>   -1.2191    1.0000 </r>
       <r>    0.9346    1.0000 </r>
       <r>    0.9498    1.0000 </r>
       <r>    2.1991    1.0000 </r>
       <r>    2.2048    1.0000 </r>
       <r>    6.5267    0.0000 </r>
       <r>    6.5320    0.0000 </r>
       <r>    9.1411    0.0000 </r>
      </set>
      <set comment="kpoint 22">
       <r>  -10.3309    1.0000 </r>
       <r>  -10.2912    1.0000 </r>
       <r>  -10.2573    1.0000 </r>
       <r>  -10.2488    1.0000 </r>
       <r>   -9.5520    1.0000 </r>
       <r>   -9.4622    1.0000 </r>
       <r>   -9.4380    1.0000 </r>
       <r>   -9.4175    1.0000 </r>
       <r>   -9.3654    1.0000 </r>
       <r>   -9.3632    1.0000 </r>
       <r>   -5.7993    1.0000 </r>
       <r>   -5.7891    1.0000 </r>
       <r>   -1.3452    1.0000 </r>
       <r>   -1.3220    1.0000 </r>
       <r>    1.9069    1.0000 </r>
       <r>    1.9283    1.0000 </r>
       <r>    2.7751    1.0000 </r>
       <r>    2.7829    1.0000 </r>
       <r>    6.2876    0.0000 </r>
       <r>    6.2926    0.0000 </r>
       <r>    8.5113    0.0000 </r>
      </set>
      <set comment="kpoint 23">
       <r>  -10.3365    1.0000 </r>
       <r>  -10.3033    1.0000 </r>
       <r>  -10.2488    1.0000 </r>
       <r>  -10.2390    1.0000 </r>
       <r>   -9.5528    1.0000 </r>
       <r>   -9.4880    1.0000 </r>
       <r>   -9.3998    1.0000 </r>
       <r>   -9.3951    1.0000 </r>
       <r>   -9.3795    1.0000 </r>
       <r>   -9.3690    1.0000 </r>
       <r>   -5.8539    1.0000 </r>
       <r>   -5.8459    1.0000 </r>
       <r>   -0.7449    1.0000 </r>
       <r>   -0.7284    1.0000 </r>
       <r>    1.6299    1.0000 </r>
       <r>    1.6584    1.0000 </r>
       <r>    2.0816    1.0000 </r>
       <r>    2.0840    1.0000 </r>
       <r>    6.3771    0.0000 </r>
       <r>    6.3833    0.0000 </r>
       <r>    7.3825    0.0000 </r>
      </set>
      <set comment="kpoint 24">
       <r>  -10.3247    1.0000 </r>
       <r>  -10.2897    1.0000 </r>
       <r>  -10.2604    1.0000 </r>
       <r>  -10.2496    1.0000 </r>
       <r>   -9.5436    1.0000 </r>
       <r>   -9.4714    1.0000 </r>
       <r>   -9.4274    1.0000 </r>
       <r>   -9.4152    1.0000 </r>
       <r>   -9.3704    1.0000 </r>
       <r>   -9.3673    1.0000 </r>
       <r>   -6.0378    1.0000 </r>
       <r>   -6.0280    1.0000 </r>
       <r>   -0.8736    1.0000 </r>
       <r>   -0.8584    1.0000 </r>
       <r>    2.2190    1.0000 </r>
       <r>    2.2502    1.0000 </r>
       <r>    2.6602    1.0000 </r>
       <r>    2.6636    1.0000 </r>
       <r>    6.3396    0.0000 </r>
       <r>    6.3580    0.0000 </r>
       <r>    8.2479    0.0000 </r>
      </set>
      <set comment="kpoint 25">
       <r>  -10.3045    1.0000 </r>
       <r>  -10.2874    1.0000 </r>
       <r>  -10.2637    1.0000 </r>
       <r>  -10.2556    1.0000 </r>
       <r>   -9.5176    1.0000 </r>
       <r>   -9.4836    1.0000 </r>
       <r>   -9.4122    1.0000 </r>
       <r>   -9.4067    1.0000 </r>
       <r>   -9.3858    1.0000 </r>
       <r>   -9.3793    1.0000 </r>
       <r>   -6.6255    1.0000 </r>
       <r>   -6.6191    1.0000 </r>
       <r>    0.5891    1.0000 </r>
       <r>    0.5894    1.0000 </r>
       <r>    2.7512    1.0000 </r>
       <r>    2.7831    1.0000 </r>
       <r>    2.9172    1.0000 </r>
       <r>    2.9230    1.0000 </r>
       <r>    6.5069    0.0000 </r>
       <r>    6.7054    0.0000 </r>
       <r>    7.4346    0.0000 </r>
      </set>
      <set comment="kpoint 26">
       <r>  -10.3276    1.0000 </r>
       <r>  -10.2926    1.0000 </r>
       <r>  -10.2548    1.0000 </r>
       <r>  -10.2449    1.0000 </r>
       <r>   -9.5495    1.0000 </r>
       <r>   -9.4729    1.0000 </r>
       <r>   -9.4154    1.0000 </r>
       <r>   -9.4041    1.0000 </r>
       <r>   -9.3762    1.0000 </r>
       <r>   -9.3745    1.0000 </r>
       <r>   -6.1641    1.0000 </r>
       <r>   -6.1525    1.0000 </r>
       <r>   -0.2862    1.0000 </r>
       <r>   -0.2683    1.0000 </r>
       <r>    1.6989    1.0000 </r>
       <r>    1.7168    1.0000 </r>
       <r>    2.6268    1.0000 </r>
       <r>    2.6570    1.0000 </r>
       <r>    7.2266    0.0000 </r>
       <r>    7.3557    0.0000 </r>
       <r>    7.5015    0.0000 </r>
      </set>
      <set comment="kpoint 27">
       <r>  -10.3465    1.0000 </r>
       <r>  -10.2932    1.0000 </r>
       <r>  -10.2500    1.0000 </r>
       <r>  -10.2352    1.0000 </r>
       <r>   -9.5764    1.0000 </r>
       <r>   -9.4564    1.0000 </r>
       <r>   -9.4241    1.0000 </r>
       <r>   -9.4055    1.0000 </r>
       <r>   -9.3694    1.0000 </r>
       <r>   -9.3662    1.0000 </r>
       <r>   -5.6783    1.0000 </r>
       <r>   -5.6664    1.0000 </r>
       <r>   -1.1250    1.0000 </r>
       <r>   -1.0868    1.0000 </r>
       <r>    1.1967    1.0000 </r>
       <r>    1.2116    1.0000 </r>
       <r>    2.2270    1.0000 </r>
       <r>    2.2564    1.0000 </r>
       <r>    7.2617    0.0000 </r>
       <r>    7.3001    0.0000 </r>
       <r>    8.2626    0.0000 </r>
      </set>
      <set comment="kpoint 28">
       <r>  -10.3465    1.0000 </r>
       <r>  -10.2932    1.0000 </r>
       <r>  -10.2500    1.0000 </r>
       <r>  -10.2352    1.0000 </r>
       <r>   -9.5764    1.0000 </r>
       <r>   -9.4564    1.0000 </r>
       <r>   -9.4241    1.0000 </r>
       <r>   -9.4055    1.0000 </r>
       <r>   -9.3694    1.0000 </r>
       <r>   -9.3662    1.0000 </r>
       <r>   -5.6783    1.0000 </r>
       <r>   -5.6664    1.0000 </r>
       <r>   -1.1250    1.0000 </r>
       <r>   -1.0868    1.0000 </r>
       <r>    1.1967    1.0000 </r>
       <r>    1.2116    1.0000 </r>
       <r>    2.2270    1.0000 </r>
       <r>    2.2564    1.0000 </r>
       <r>    7.2639    0.0000 </r>
       <r>    7.2874    0.0000 </r>
       <r>    8.2573    0.0000 </r>
      </set>
      <set comment="kpoint 29">
       <r>  -10.3528    1.0000 </r>
       <r>  -10.3014    1.0000 </r>
       <r>  -10.2433    1.0000 </r>
       <r>  -10.2323    1.0000 </r>
       <r>   -9.5778    1.0000 </r>
       <r>   -9.4736    1.0000 </r>
       <r>   -9.3998    1.0000 </r>
       <r>   -9.3941    1.0000 </r>
       <r>   -9.3784    1.0000 </r>
       <r>   -9.3625    1.0000 </r>
       <r>   -5.4893    1.0000 </r>
       <r>   -5.4813    1.0000 </r>
       <r>   -1.2120    1.0000 </r>
       <r>   -1.1767    1.0000 </r>
       <r>    1.2561    1.0000 </r>
       <r>    1.2688    1.0000 </r>
       <r>    1.5775    1.0000 </r>
       <r>    1.6021    1.0000 </r>
       <r>    7.0041    0.0000 </r>
       <r>    7.1213    0.0000 </r>
       <r>    7.4462    0.0000 </r>
      </set>
      <set comment="kpoint 30">
       <r>  -10.3592    1.0000 </r>
       <r>  -10.2955    1.0000 </r>
       <r>  -10.2430    1.0000 </r>
       <r>  -10.2279    1.0000 </r>
       <r>   -9.5940    1.0000 </r>
       <r>   -9.4535    1.0000 </r>
       <r>   -9.4125    1.0000 </r>
       <r>   -9.3995    1.0000 </r>
       <r>   -9.3720    1.0000 </r>
       <r>   -9.3642    1.0000 </r>
       <r>   -5.3998    1.0000 </r>
       <r>   -5.3910    1.0000 </r>
       <r>   -1.2836    1.0000 </r>
       <r>   -1.2304    1.0000 </r>
       <r>    0.8311    1.0000 </r>
       <r>    0.8406    1.0000 </r>
       <r>    1.6543    1.0000 </r>
       <r>    1.6809    1.0000 </r>
       <r>    7.4343    0.0000 </r>
       <r>    7.4398    0.0000 </r>
       <r>    8.8433    0.0000 </r>
      </set>
     </set>
    </set>
   </array>
  </eigenvalues>
  <separator name="orbital magnetization" >
   <v name="MAGDIPOLOUT">      0.00000000      0.00000000      0.00000000</v>
  </separator>
  <dos>
   <i name="efermi">      4.16907030 </i>
   <total>
    <array>
     <dimension dim="1">gridpoints</dimension>
     <dimension dim="2">spin</dimension>
     <field>energy</field>
     <field>total</field>
     <field>integrated</field>
     <set>
      <set comment="spin 1">
       <r>   -11.3497     0.0000     0.0000 </r>
       <r>   -11.2771     0.0000     0.0000 </r>
       <r>   -11.2044     0.0000     0.0000 </r>
       <r>   -11.1318     0.0000     0.0000 </r>
       <r>   -11.0592     0.0000     0.0000 </r>
       <r>   -10.9865     0.0000     0.0000 </r>
       <r>   -10.9139     0.0000     0.0000 </r>
       <r>   -10.8413     0.0000     0.0000 </r>
       <r>   -10.7686    -0.0000    -0.0000 </r>
       <r>   -10.6960    -0.0000    -0.0000 </r>
       <r>   -10.6234    -0.0000    -0.0000 </r>
       <r>   -10.5507    -0.0000    -0.0000 </r>
       <r>   -10.4781    -0.0064    -0.0005 </r>
       <r>   -10.4055    -0.3717    -0.0275 </r>
       <r>   -10.3328     6.9869     0.4800 </r>
       <r>   -10.2602    29.2231     2.6026 </r>
       <r>   -10.1876    20.0738     4.0607 </r>
       <r>   -10.1149    -0.8128     4.0017 </r>
       <r>   -10.0423    -0.0228     4.0000 </r>
       <r>    -9.9697    -0.0000     4.0000 </r>
       <r>    -9.8970    -0.0000     4.0000 </r>
       <r>    -9.8244    -0.0000     4.0000 </r>
       <r>    -9.7518    -0.0001     4.0000 </r>
       <r>    -9.6791    -0.0537     3.9961 </r>
       <r>    -9.6065     0.5155     4.0335 </r>
       <r>    -9.5339     9.0045     4.6876 </r>
       <r>    -9.4612    12.8745     5.6227 </r>
       <r>    -9.3886    34.6181     8.1372 </r>
       <r>    -9.3160    26.7882    10.0829 </r>
       <r>    -9.2433    -1.1135    10.0020 </r>
       <r>    -9.1707    -0.0281    10.0000 </r>
       <r>    -9.0980    -0.0000    10.0000 </r>
       <r>    -9.0254    -0.0000    10.0000 </r>
       <r>    -8.9528     0.0000    10.0000 </r>
       <r>    -8.8801     0.0000    10.0000 </r>
       <r>    -8.8075     0.0000    10.0000 </r>
       <r>    -8.7349     0.0000    10.0000 </r>
       <r>    -8.6622     0.0000    10.0000 </r>
       <r>    -8.5896     0.0000    10.0000 </r>
       <r>    -8.5170     0.0000    10.0000 </r>
       <r>    -8.4443     0.0000    10.0000 </r>
       <r>    -8.3717     0.0000    10.0000 </r>
       <r>    -8.2991     0.0000    10.0000 </r>
       <r>    -8.2264     0.0000    10.0000 </r>
       <r>    -8.1538     0.0000    10.0000 </r>
       <r>    -8.0812     0.0000    10.0000 </r>
       <r>    -8.0085     0.0000    10.0000 </r>
       <r>    -7.9359     0.0000    10.0000 </r>
       <r>    -7.8633     0.0000    10.0000 </r>
       <r>    -7.7906     0.0000    10.0000 </r>
       <r>    -7.7180    -0.0000    10.0000 </r>
       <r>    -7.6454    -0.0000    10.0000 </r>
       <r>    -7.5727    -0.0000    10.0000 </r>
       <r>    -7.5001    -0.0000    10.0000 </r>
       <r>    -7.4275    -0.0002    10.0000 </r>
       <r>    -7.3548     0.0002    10.0000 </r>
       <r>    -7.2822     0.0743    10.0054 </r>
       <r>    -7.2096     0.0007    10.0054 </r>
       <r>    -7.1369     0.0797    10.0112 </r>
       <r>    -7.0643     0.6786    10.0605 </r>
       <r>    -6.9916     0.3872    10.0886 </r>
       <r>    -6.9190    -0.0175    10.0874 </r>
       <r>    -6.8464    -0.0161    10.0862 </r>
       <r>    -6.7737     0.8514    10.1480 </r>
       <r>    -6.7011     0.0909    10.1547 </r>
       <r>    -6.6285     0.7880    10.2119 </r>
       <r>    -6.5558     1.7871    10.3417 </r>
       <r>    -6.4832     0.0392    10.3445 </r>
       <r>    -6.4106    -0.0219    10.3430 </r>
       <r>    -6.3379     0.2554    10.3615 </r>
       <r>    -6.2653     0.3056    10.3837 </r>
       <r>    -6.1927     1.8760    10.5200 </r>
       <r>    -6.1200     1.8386    10.6535 </r>
       <r>    -6.0474     0.5960    10.6968 </r>
       <r>    -5.9748     2.0527    10.8459 </r>
       <r>    -5.9021    -0.0618    10.8414 </r>
       <r>    -5.8295     1.6917    10.9643 </r>
       <r>    -5.7569     2.3242    11.1331 </r>
       <r>    -5.6842     2.0856    11.2846 </r>
       <r>    -5.6116     2.7075    11.4812 </r>
       <r>    -5.5390     0.6008    11.5249 </r>
       <r>    -5.4663     3.2408    11.7603 </r>
       <r>    -5.3937     1.7988    11.8909 </r>
       <r>    -5.3211     1.5891    12.0064 </r>
       <r>    -5.2484    -0.0869    12.0000 </r>
       <r>    -5.1758    -0.0007    12.0000 </r>
       <r>    -5.1031    -0.0000    12.0000 </r>
       <r>    -5.0305    -0.0000    12.0000 </r>
       <r>    -4.9579     0.0000    12.0000 </r>
       <r>    -4.8852     0.0000    12.0000 </r>
       <r>    -4.8126     0.0000    12.0000 </r>
       <r>    -4.7400     0.0000    12.0000 </r>
       <r>    -4.6673     0.0000    12.0000 </r>
       <r>    -4.5947     0.0000    12.0000 </r>
       <r>    -4.5221     0.0000    12.0000 </r>
       <r>    -4.4494     0.0000    12.0000 </r>
       <r>    -4.3768     0.0000    12.0000 </r>
       <r>    -4.3042     0.0000    12.0000 </r>
       <r>    -4.2315     0.0000    12.0000 </r>
       <r>    -4.1589     0.0000    12.0000 </r>
       <r>    -4.0863     0.0000    12.0000 </r>
       <r>    -4.0136     0.0000    12.0000 </r>
       <r>    -3.9410     0.0000    12.0000 </r>
       <r>    -3.8684     0.0000    12.0000 </r>
       <r>    -3.7957     0.0000    12.0000 </r>
       <r>    -3.7231     0.0000    12.0000 </r>
       <r>    -3.6505     0.0000    12.0000 </r>
       <r>    -3.5778     0.0000    12.0000 </r>
       <r>    -3.5052     0.0000    12.0000 </r>
       <r>    -3.4326     0.0000    12.0000 </r>
       <r>    -3.3599     0.0000    12.0000 </r>
       <r>    -3.2873     0.0000    12.0000 </r>
       <r>    -3.2147     0.0000    12.0000 </r>
       <r>    -3.1420     0.0000    12.0000 </r>
       <r>    -3.0694     0.0000    12.0000 </r>
       <r>    -2.9967     0.0000    12.0000 </r>
       <r>    -2.9241     0.0000    12.0000 </r>
       <r>    -2.8515     0.0000    12.0000 </r>
       <r>    -2.7788     0.0000    12.0000 </r>
       <r>    -2.7062     0.0000    12.0000 </r>
       <r>    -2.6336     0.0000    12.0000 </r>
       <r>    -2.5609     0.0000    12.0000 </r>
       <r>    -2.4883     0.0000    12.0000 </r>
       <r>    -2.4157     0.0000    12.0000 </r>
       <r>    -2.3430     0.0000    12.0000 </r>
       <r>    -2.2704     0.0000    12.0000 </r>
       <r>    -2.1978     0.0000    12.0000 </r>
       <r>    -2.1251     0.0000    12.0000 </r>
       <r>    -2.0525     0.0000    12.0000 </r>
       <r>    -1.9799     0.0000    12.0000 </r>
       <r>    -1.9072     0.0000    12.0000 </r>
       <r>    -1.8346    -0.0000    12.0000 </r>
       <r>    -1.7620    -0.0000    12.0000 </r>
       <r>    -1.6893    -0.0000    12.0000 </r>
       <r>    -1.6167    -0.0000    12.0000 </r>
       <r>    -1.5441    -0.0000    12.0000 </r>
       <r>    -1.4714    -0.0138    11.9990 </r>
       <r>    -1.3988     0.1448    12.0095 </r>
       <r>    -1.3262     1.9454    12.1508 </r>
       <r>    -1.2535     2.7887    12.3534 </r>
       <r>    -1.1809     4.1522    12.6550 </r>
       <r>    -1.1083     2.6365    12.8465 </r>
       <r>    -1.0356     2.0567    12.9958 </r>
       <r>    -0.9630     0.2328    13.0128 </r>
       <r>    -0.8903     0.9444    13.0814 </r>
       <r>    -0.8177     1.6347    13.2001 </r>
       <r>    -0.7451     0.7237    13.2526 </r>
       <r>    -0.6724     1.2788    13.3455 </r>
       <r>    -0.5998    -0.0601    13.3412 </r>
       <r>    -0.5272    -0.0355    13.3386 </r>
       <r>    -0.4545     0.5867    13.3812 </r>
       <r>    -0.3819     1.4196    13.4843 </r>
       <r>    -0.3093     0.1082    13.4922 </r>
       <r>    -0.2366     1.7338    13.6181 </r>
       <r>    -0.1640     0.0469    13.6215 </r>
       <r>    -0.0914    -0.0072    13.6210 </r>
       <r>    -0.0187    -0.0006    13.6210 </r>
       <r>     0.0539    -0.0209    13.6194 </r>
       <r>     0.1265     0.5009    13.6558 </r>
       <r>     0.1992     0.4403    13.6878 </r>
       <r>     0.2718     0.2171    13.7036 </r>
       <r>     0.3444    -0.0129    13.7026 </r>
       <r>     0.4171    -0.0001    13.7026 </r>
       <r>     0.4897    -0.0159    13.7015 </r>
       <r>     0.5623     0.2277    13.7180 </r>
       <r>     0.6350     1.7417    13.8445 </r>
       <r>     0.7076    -0.0247    13.8427 </r>
       <r>     0.7802    -0.0623    13.8382 </r>
       <r>     0.8529     1.4789    13.9456 </r>
       <r>     0.9255     1.5117    14.0554 </r>
       <r>     0.9981     2.0087    14.2013 </r>
       <r>     1.0708     0.8188    14.2608 </r>
       <r>     1.1434    -0.1235    14.2518 </r>
       <r>     1.2161     3.5010    14.5061 </r>
       <r>     1.2887     3.2377    14.7413 </r>
       <r>     1.3613     0.1681    14.7535 </r>
       <r>     1.4340    -0.0180    14.7522 </r>
       <r>     1.5066    -0.0414    14.7492 </r>
       <r>     1.5792     0.6155    14.7939 </r>
       <r>     1.6519     3.0454    15.0151 </r>
       <r>     1.7245     3.9115    15.2992 </r>
       <r>     1.7971     1.8183    15.4313 </r>
       <r>     1.8698     0.2952    15.4527 </r>
       <r>     1.9424     1.5688    15.5666 </r>
       <r>     2.0150     1.7204    15.6916 </r>
       <r>     2.0877     2.2014    15.8515 </r>
       <r>     2.1603     1.3593    15.9502 </r>
       <r>     2.2329     4.1704    16.2532 </r>
       <r>     2.3056     3.9200    16.5379 </r>
       <r>     2.3782     0.5034    16.5744 </r>
       <r>     2.4508     0.1279    16.5837 </r>
       <r>     2.5235    -0.0182    16.5824 </r>
       <r>     2.5961    -0.0673    16.5775 </r>
       <r>     2.6687     4.2561    16.8867 </r>
       <r>     2.7414     2.0775    17.0376 </r>
       <r>     2.8140     3.2411    17.2730 </r>
       <r>     2.8866     0.3621    17.2993 </r>
       <r>     2.9593     2.3290    17.4684 </r>
       <r>     3.0319     0.0161    17.4696 </r>
       <r>     3.1045     0.0135    17.4706 </r>
       <r>     3.1772     1.2361    17.5604 </r>
       <r>     3.2498     2.0644    17.7103 </r>
       <r>     3.3225     0.3592    17.7364 </r>
       <r>     3.3951     0.2281    17.7530 </r>
       <r>     3.4677     0.9336    17.8208 </r>
       <r>     3.5404    -0.0219    17.8192 </r>
       <r>     3.6130    -0.0304    17.8170 </r>
       <r>     3.6856     1.2924    17.9109 </r>
       <r>     3.7583     0.3628    17.9372 </r>
       <r>     3.8309     0.0556    17.9413 </r>
       <r>     3.9035     0.6027    17.9850 </r>
       <r>     3.9762     0.0496    17.9886 </r>
       <r>     4.0488    -0.0081    17.9880 </r>
       <r>     4.1214     0.0699    17.9931 </r>
       <r>     4.1941     0.0992    18.0003 </r>
       <r>     4.2667     0.0086    18.0009 </r>
       <r>     4.3393     0.0693    18.0060 </r>
       <r>     4.4120    -0.0020    18.0058 </r>
       <r>     4.4846    -0.0001    18.0058 </r>
       <r>     4.5572    -0.0000    18.0058 </r>
       <r>     4.6299    -0.0000    18.0058 </r>
       <r>     4.7025     0.0000    18.0058 </r>
       <r>     4.7751     0.0000    18.0058 </r>
       <r>     4.8478     0.0000    18.0058 </r>
       <r>     4.9204    -0.0000    18.0058 </r>
       <r>     4.9930    -0.0000    18.0058 </r>
       <r>     5.0657    -0.0000    18.0058 </r>
       <r>     5.1383    -0.0000    18.0058 </r>
       <r>     5.2109    -0.0010    18.0058 </r>
       <r>     5.2836    -0.0147    18.0047 </r>
       <r>     5.3562     0.5389    18.0438 </r>
       <r>     5.4289     0.4710    18.0781 </r>
       <r>     5.5015     0.7953    18.1358 </r>
       <r>     5.5741     0.1469    18.1465 </r>
       <r>     5.6468    -0.0098    18.1458 </r>
       <r>     5.7194    -0.0008    18.1457 </r>
       <r>     5.7920    -0.0093    18.1450 </r>
       <r>     5.8647     0.4245    18.1759 </r>
       <r>     5.9373     0.0720    18.1811 </r>
       <r>     6.0099    -0.0062    18.1806 </r>
       <r>     6.0826    -0.0218    18.1791 </r>
       <r>     6.1552     0.8748    18.2426 </r>
       <r>     6.2278     0.8365    18.3034 </r>
       <r>     6.3005     1.9626    18.4459 </r>
       <r>     6.3731     4.5846    18.7789 </r>
       <r>     6.4457     2.1573    18.9356 </r>
       <r>     6.5184     1.4629    19.0419 </r>
       <r>     6.5910     2.1815    19.2003 </r>
       <r>     6.6636    -0.0726    19.1951 </r>
       <r>     6.7363     0.5355    19.2339 </r>
       <r>     6.8089     1.0722    19.3118 </r>
       <r>     6.8815     0.0881    19.3182 </r>
       <r>     6.9542    -0.0369    19.3155 </r>
       <r>     7.0268     0.9412    19.3839 </r>
       <r>     7.0994     0.5100    19.4210 </r>
       <r>     7.1721     1.1301    19.5030 </r>
       <r>     7.2447     1.4910    19.6113 </r>
       <r>     7.3174     3.4289    19.8604 </r>
       <r>     7.3900     1.5814    19.9753 </r>
       <r>     7.4626     3.9122    20.2594 </r>
       <r>     7.5353     1.4785    20.3668 </r>
       <r>     7.6079     0.0124    20.3677 </r>
       <r>     7.6805    -0.0050    20.3673 </r>
       <r>     7.7532    -0.0003    20.3673 </r>
       <r>     7.8258     0.0049    20.3677 </r>
       <r>     7.8984     0.0362    20.3703 </r>
       <r>     7.9711    -0.0055    20.3699 </r>
       <r>     8.0437     0.0805    20.3758 </r>
       <r>     8.1163     0.2235    20.3920 </r>
       <r>     8.1890    -0.0832    20.3859 </r>
       <r>     8.2616     2.2053    20.5461 </r>
       <r>     8.3342     1.3489    20.6441 </r>
       <r>     8.4069    -0.0831    20.6381 </r>
       <r>     8.4795     0.0752    20.6435 </r>
       <r>     8.5521     0.8857    20.7079 </r>
       <r>     8.6248     0.1067    20.7156 </r>
       <r>     8.6974     0.3614    20.7419 </r>
       <r>     8.7700     0.3111    20.7644 </r>
       <r>     8.8427     1.2205    20.8531 </r>
       <r>     8.9153     0.8323    20.9136 </r>
       <r>     8.9879     0.2423    20.9312 </r>
       <r>     9.0606    -0.0262    20.9292 </r>
       <r>     9.1332     0.1884    20.9429 </r>
       <r>     9.2058     0.3208    20.9662 </r>
       <r>     9.2785    -0.0166    20.9650 </r>
       <r>     9.3511    -0.0043    20.9647 </r>
       <r>     9.4238     0.0594    20.9690 </r>
       <r>     9.4964     0.4338    21.0005 </r>
       <r>     9.5690    -0.0065    21.0001 </r>
       <r>     9.6417    -0.0009    21.0000 </r>
       <r>     9.7143    -0.0000    21.0000 </r>
       <r>     9.7869    -0.0000    21.0000 </r>
       <r>     9.8596     0.0000    21.0000 </r>
       <r>     9.9322     0.0000    21.0000 </r>
       <r>    10.0048     0.0000    21.0000 </r>
       <r>    10.0775     0.0000    21.0000 </r>
       <r>    10.1501     0.0000    21.0000 </r>
       <r>    10.2227     0.0000    21.0000 </r>
       <r>    10.2954     0.0000    21.0000 </r>
       <r>    10.3680     0.0000    21.0000 </r>
       <r>    10.4406     0.0000    21.0000 </r>
      </set>
      <set comment="spin 2">
       <r>   -11.3497     0.0000     0.0000 </r>
       <r>   -11.2771     0.0000     0.0000 </r>
       <r>   -11.2044     0.0000     0.0000 </r>
       <r>   -11.1318     0.0000     0.0000 </r>
       <r>   -11.0592     0.0000     0.0000 </r>
       <r>   -10.9865     0.0000     0.0000 </r>
       <r>   -10.9139     0.0000     0.0000 </r>
       <r>   -10.8413     0.0000     0.0000 </r>
       <r>   -10.7686     0.0000     0.0000 </r>
       <r>   -10.6960     0.0000     0.0000 </r>
       <r>   -10.6234     0.0000     0.0000 </r>
       <r>   -10.5507     0.0000     0.0000 </r>
       <r>   -10.4781     0.0000     0.0000 </r>
       <r>   -10.4055     0.0000     0.0000 </r>
       <r>   -10.3328     0.0000     0.0000 </r>
       <r>   -10.2602     0.0000     0.0000 </r>
       <r>   -10.1876     0.0000     0.0000 </r>
       <r>   -10.1149     0.0000     0.0000 </r>
       <r>   -10.0423     0.0000     0.0000 </r>
       <r>    -9.9697     0.0000     0.0000 </r>
       <r>    -9.8970     0.0000     0.0000 </r>
       <r>    -9.8244     0.0000     0.0000 </r>
       <r>    -9.7518     0.0000     0.0000 </r>
       <r>    -9.6791     0.0000     0.0000 </r>
       <r>    -9.6065     0.0000     0.0000 </r>
       <r>    -9.5339     0.0000     0.0000 </r>
       <r>    -9.4612     0.0000     0.0000 </r>
       <r>    -9.3886     0.0000     0.0000 </r>
       <r>    -9.3160     0.0000     0.0000 </r>
       <r>    -9.2433     0.0000     0.0000 </r>
       <r>    -9.1707     0.0000     0.0000 </r>
       <r>    -9.0980     0.0000     0.0000 </r>
       <r>    -9.0254     0.0000     0.0000 </r>
       <r>    -8.9528     0.0000     0.0000 </r>
       <r>    -8.8801     0.0000     0.0000 </r>
       <r>    -8.8075     0.0000     0.0000 </r>
       <r>    -8.7349     0.0000     0.0000 </r>
       <r>    -8.6622     0.0000     0.0000 </r>
       <r>    -8.5896     0.0000     0.0000 </r>
       <r>    -8.5170     0.0000     0.0000 </r>
       <r>    -8.4443     0.0000     0.0000 </r>
       <r>    -8.3717     0.0000     0.0000 </r>
       <r>    -8.2991     0.0000     0.0000 </r>
       <r>    -8.2264     0.0000     0.0000 </r>
       <r>    -8.1538     0.0000     0.0000 </r>
       <r>    -8.0812     0.0000     0.0000 </r>
       <r>    -8.0085     0.0000     0.0000 </r>
       <r>    -7.9359     0.0000     0.0000 </r>
       <r>    -7.8633     0.0000     0.0000 </r>
       <r>    -7.7906     0.0000     0.0000 </r>
       <r>    -7.7180     0.0000     0.0000 </r>
       <r>    -7.6454     0.0000     0.0000 </r>
       <r>    -7.5727     0.0000     0.0000 </r>
       <r>    -7.5001     0.0000     0.0000 </r>
       <r>    -7.4275     0.0000     0.0000 </r>
       <r>    -7.3548     0.0000     0.0000 </r>
       <r>    -7.2822     0.0000     0.0000 </r>
       <r>    -7.2096     0.0000     0.0000 </r>
       <r>    -7.1369     0.0000     0.0000 </r>
       <r>    -7.0643     0.0000     0.0000 </r>
       <r>    -6.9916     0.0000     0.0000 </r>
       <r>    -6.9190     0.0000     0.0000 </r>
       <r>    -6.8464     0.0000     0.0000 </r>
       <r>    -6.7737     0.0000     0.0000 </r>
       <r>    -6.7011     0.0000     0.0000 </r>
       <r>    -6.6285     0.0000     0.0000 </r>
       <r>    -6.5558     0.0000     0.0000 </r>
       <r>    -6.4832     0.0000     0.0000 </r>
       <r>    -6.4106     0.0000     0.0000 </r>
       <r>    -6.3379     0.0000     0.0000 </r>
       <r>    -6.2653     0.0000     0.0000 </r>
       <r>    -6.1927     0.0000     0.0000 </r>
       <r>    -6.1200     0.0000     0.0000 </r>
       <r>    -6.0474     0.0000     0.0000 </r>
       <r>    -5.9748     0.0000     0.0000 </r>
       <r>    -5.9021     0.0000     0.0000 </r>
       <r>    -5.8295     0.0000     0.0000 </r>
       <r>    -5.7569     0.0000     0.0000 </r>
       <r>    -5.6842     0.0000     0.0000 </r>
       <r>    -5.6116     0.0000     0.0000 </r>
       <r>    -5.5390     0.0000     0.0000 </r>
       <r>    -5.4663     0.0000     0.0000 </r>
       <r>    -5.3937     0.0000     0.0000 </r>
       <r>    -5.3211     0.0000     0.0000 </r>
       <r>    -5.2484     0.0000     0.0000 </r>
       <r>    -5.1758     0.0000     0.0000 </r>
       <r>    -5.1031     0.0000     0.0000 </r>
       <r>    -5.0305     0.0000     0.0000 </r>
       <r>    -4.9579     0.0000     0.0000 </r>
       <r>    -4.8852     0.0000     0.0000 </r>
       <r>    -4.8126     0.0000     0.0000 </r>
       <r>    -4.7400     0.0000     0.0000 </r>
       <r>    -4.6673     0.0000     0.0000 </r>
       <r>    -4.5947     0.0000     0.0000 </r>
       <r>    -4.5221     0.0000     0.0000 </r>
       <r>    -4.4494     0.0000     0.0000 </r>
       <r>    -4.3768     0.0000     0.0000 </r>
       <r>    -4.3042     0.0000     0.0000 </r>
       <r>    -4.2315     0.0000     0.0000 </r>
       <r>    -4.1589     0.0000     0.0000 </r>
       <r>    -4.0863     0.0000     0.0000 </r>
       <r>    -4.0136     0.0000     0.0000 </r>
       <r>    -3.9410     0.0000     0.0000 </r>
       <r>    -3.8684     0.0000     0.0000 </r>
       <r>    -3.7957     0.0000     0.0000 </r>
       <r>    -3.7231     0.0000     0.0000 </r>
       <r>    -3.6505     0.0000     0.0000 </r>
       <r>    -3.5778     0.0000     0.0000 </r>
       <r>    -3.5052     0.0000     0.0000 </r>
       <r>    -3.4326     0.0000     0.0000 </r>
       <r>    -3.3599     0.0000     0.0000 </r>
       <r>    -3.2873     0.0000     0.0000 </r>
       <r>    -3.2147     0.0000     0.0000 </r>
       <r>    -3.1420     0.0000     0.0000 </r>
       <r>    -3.0694     0.0000     0.0000 </r>
       <r>    -2.9967     0.0000     0.0000 </r>
       <r>    -2.9241     0.0000     0.0000 </r>
       <r>    -2.8515     0.0000     0.0000 </r>
       <r>    -2.7788     0.0000     0.0000 </r>
       <r>    -2.7062     0.0000     0.0000 </r>
       <r>    -2.6336     0.0000     0.0000 </r>
       <r>    -2.5609     0.0000     0.0000 </r>
       <r>    -2.4883     0.0000     0.0000 </r>
       <r>    -2.4157     0.0000     0.0000 </r>
       <r>    -2.3430     0.0000     0.0000 </r>
       <r>    -2.2704     0.0000     0.0000 </r>
       <r>    -2.1978     0.0000     0.0000 </r>
       <r>    -2.1251     0.0000     0.0000 </r>
       <r>    -2.0525     0.0000     0.0000 </r>
       <r>    -1.9799     0.0000     0.0000 </r>
       <r>    -1.9072     0.0000     0.0000 </r>
       <r>    -1.8346     0.0000     0.0000 </r>
       <r>    -1.7620     0.0000     0.0000 </r>
       <r>    -1.6893     0.0000     0.0000 </r>
       <r>    -1.6167     0.0000     0.0000 </r>
       <r>    -1.5441     0.0000     0.0000 </r>
       <r>    -1.4714     0.0000     0.0000 </r>
       <r>    -1.3988     0.0000     0.0000 </r>
       <r>    -1.3262     0.0000     0.0000 </r>
       <r>    -1.2535     0.0000     0.0000 </r>
       <r>    -1.1809     0.0000     0.0000 </r>
       <r>    -1.1083     0.0000     0.0000 </r>
       <r>    -1.0356     0.0000     0.0000 </r>
       <r>    -0.9630     0.0000     0.0000 </r>
       <r>    -0.8903     0.0000     0.0000 </r>
       <r>    -0.8177     0.0000     0.0000 </r>
       <r>    -0.7451     0.0000     0.0000 </r>
       <r>    -0.6724     0.0000     0.0000 </r>
       <r>    -0.5998     0.0000     0.0000 </r>
       <r>    -0.5272     0.0000     0.0000 </r>
       <r>    -0.4545     0.0000     0.0000 </r>
       <r>    -0.3819     0.0000     0.0000 </r>
       <r>    -0.3093     0.0000     0.0000 </r>
       <r>    -0.2366     0.0000     0.0000 </r>
       <r>    -0.1640     0.0000     0.0000 </r>
       <r>    -0.0914     0.0000     0.0000 </r>
       <r>    -0.0187     0.0000     0.0000 </r>
       <r>     0.0539     0.0000     0.0000 </r>
       <r>     0.1265     0.0000     0.0000 </r>
       <r>     0.1992     0.0000     0.0000 </r>
       <r>     0.2718     0.0000     0.0000 </r>
       <r>     0.3444     0.0000     0.0000 </r>
       <r>     0.4171     0.0000     0.0000 </r>
       <r>     0.4897     0.0000     0.0000 </r>
       <r>     0.5623     0.0000     0.0000 </r>
       <r>     0.6350     0.0000     0.0000 </r>
       <r>     0.7076     0.0000     0.0000 </r>
       <r>     0.7802     0.0000     0.0000 </r>
       <r>     0.8529     0.0000     0.0000 </r>
       <r>     0.9255     0.0000     0.0000 </r>
       <r>     0.9981     0.0000     0.0000 </r>
       <r>     1.0708     0.0000     0.0000 </r>
       <r>     1.1434     0.0000     0.0000 </r>
       <r>     1.2161     0.0000     0.0000 </r>
       <r>     1.2887     0.0000     0.0000 </r>
       <r>     1.3613     0.0000     0.0000 </r>
       <r>     1.4340     0.0000     0.0000 </r>
       <r>     1.5066     0.0000     0.0000 </r>
       <r>     1.5792     0.0000     0.0000 </r>
       <r>     1.6519     0.0000     0.0000 </r>
       <r>     1.7245     0.0000     0.0000 </r>
       <r>     1.7971     0.0000     0.0000 </r>
       <r>     1.8698     0.0000     0.0000 </r>
       <r>     1.9424     0.0000     0.0000 </r>
       <r>     2.0150     0.0000     0.0000 </r>
       <r>     2.0877     0.0000     0.0000 </r>
       <r>     2.1603     0.0000     0.0000 </r>
       <r>     2.2329     0.0000     0.0000 </r>
       <r>     2.3056     0.0000     0.0000 </r>
       <r>     2.3782     0.0000     0.0000 </r>
       <r>     2.4508     0.0000     0.0000 </r>
       <r>     2.5235     0.0000     0.0000 </r>
       <r>     2.5961     0.0000     0.0000 </r>
       <r>     2.6687     0.0000     0.0000 </r>
       <r>     2.7414     0.0000     0.0000 </r>
       <r>     2.8140     0.0000     0.0000 </r>
       <r>     2.8866     0.0000     0.0000 </r>
       <r>     2.9593     0.0000     0.0000 </r>
       <r>     3.0319     0.0000     0.0000 </r>
       <r>     3.1045     0.0000     0.0000 </r>
       <r>     3.1772     0.0000     0.0000 </r>
       <r>     3.2498     0.0000     0.0000 </r>
       <r>     3.3225     0.0000     0.0000 </r>
       <r>     3.3951     0.0000     0.0000 </r>
       <r>     3.4677     0.0000     0.0000 </r>
       <r>     3.5404     0.0000     0.0000 </r>
       <r>     3.6130     0.0000     0.0000 </r>
       <r>     3.6856     0.0000     0.0000 </r>
       <r>     3.7583     0.0000     0.0000 </r>
       <r>     3.8309     0.0000     0.0000 </r>
       <r>     3.9035     0.0000     0.0000 </r>
       <r>     3.9762     0.0000     0.0000 </r>
       <r>     4.0488     0.0000     0.0000 </r>
       <r>     4.1214     0.0000     0.0000 </r>
       <r>     4.1941     0.0000     0.0000 </r>
       <r>     4.2667     0.0000     0.0000 </r>
       <r>     4.3393     0.0000     0.0000 </r>
       <r>     4.4120     0.0000     0.0000 </r>
       <r>     4.4846     0.0000     0.0000 </r>
       <r>     4.5572     0.0000     0.0000 </r>
       <r>     4.6299     0.0000     0.0000 </r>
       <r>     4.7025     0.0000     0.0000 </r>
       <r>     4.7751     0.0000     0.0000 </r>
       <r>     4.8478     0.0000     0.0000 </r>
       <r>     4.9204     0.0000     0.0000 </r>
       <r>     4.9930     0.0000     0.0000 </r>
       <r>     5.0657     0.0000     0.0000 </r>
       <r>     5.1383     0.0000     0.0000 </r>
       <r>     5.2109     0.0000     0.0000 </r>
       <r>     5.2836     0.0000     0.0000 </r>
       <r>     5.3562     0.0000     0.0000 </r>
       <r>     5.4289     0.0000     0.0000 </r>
       <r>     5.5015     0.0000     0.0000 </r>
       <r>     5.5741     0.0000     0.0000 </r>
       <r>     5.6468     0.0000     0.0000 </r>
       <r>     5.7194     0.0000     0.0000 </r>
       <r>     5.7920     0.0000     0.0000 </r>
       <r>     5.8647     0.0000     0.0000 </r>
       <r>     5.9373     0.0000     0.0000 </r>
       <r>     6.0099     0.0000     0.0000 </r>
       <r>     6.0826     0.0000     0.0000 </r>
       <r>     6.1552     0.0000     0.0000 </r>
       <r>     6.2278     0.0000     0.0000 </r>
       <r>     6.3005     0.0000     0.0000 </r>
       <r>     6.3731     0.0000     0.0000 </r>
       <r>     6.4457     0.0000     0.0000 </r>
       <r>     6.5184     0.0000     0.0000 </r>
       <r>     6.5910     0.0000     0.0000 </r>
       <r>     6.6636     0.0000     0.0000 </r>
       <r>     6.7363     0.0000     0.0000 </r>
       <r>     6.8089     0.0000     0.0000 </r>
       <r>     6.8815     0.0000     0.0000 </r>
       <r>     6.9542     0.0000     0.0000 </r>
       <r>     7.0268     0.0000     0.0000 </r>
[...]
       </set>
       <set comment="band 21">
        <r>  0.0233  0.0058  0.0582  0.0017  0.0079  0.0028  0.0009 -0.0000  0.0002 </r>
        <r> -0.0009  0.0065  0.0082  0.0208  0.0087 -0.0002  0.0028 -0.0000 -0.0000 </r>
       </set>
      </set>
      <set comment="kpoint 27">
       <set comment="band 1">
        <r>  0.0000  0.0000  0.0003  0.0001  0.1268  0.0639 -0.0477 -0.0048  0.0700 </r>
        <r>  0.0062 -0.0000  0.0002  0.0000 -0.0000 -0.0000 -0.0000  0.0000 -0.0000 </r>
       </set>
       <set comment="band 2">
        <r> -0.0000  0.0001 -0.0001 -0.0000 -0.1722 -0.0415 -0.0567  0.2025 -0.1160 </r>
        <r> -0.0017  0.0001 -0.0005  0.0000 -0.0000  0.0001 -0.0000 -0.0000 -0.0000 </r>
       </set>
       <set comment="band 3">
        <r>  0.0000 -0.0000  0.0000  0.0000  0.1135  0.1446 -0.1012 -0.0077  0.1054 </r>
        <r> -0.0000  0.0009  0.0002  0.0002 -0.0000 -0.0000  0.0000  0.0001  0.0000 </r>
       </set>
       <set comment="band 4">
        <r> -0.0000 -0.0001 -0.0000 -0.0000 -0.0824 -0.1624  0.2371 -0.1965 -0.0590 </r>
        <r> -0.0003  0.0000 -0.0002 -0.0006 -0.0000 -0.0002  0.0000 -0.0001 -0.0000 </r>
       </set>
       <set comment="band 5">
        <r> -0.0002 -0.0002 -0.0002 -0.0003  0.0764 -0.0849 -0.0294 -0.0781 -0.0377 </r>
        <r> -0.0092 -0.0001  0.0005  0.0000  0.0000 -0.0000  0.0000 -0.0000  0.0000 </r>
       </set>
       <set comment="band 6">
        <r>  0.0001  0.0001 -0.0000  0.0001 -0.0365 -0.0026 -0.1476  0.0808  0.0539 </r>
        <r>  0.0030 -0.0002 -0.0004  0.0000  0.0000  0.0001  0.0000 -0.0000 -0.0000 </r>
       </set>
       <set comment="band 7">
        <r>  0.0000 -0.0000 -0.0000 -0.0000 -0.1170  0.0612 -0.0488 -0.1100  0.0863 </r>
        <r>  0.0001 -0.0011 -0.0002  0.0010 -0.0000  0.0001 -0.0001 -0.0002  0.0000 </r>
       </set>
       <set comment="band 8">
        <r> -0.0000  0.0000 -0.0000 -0.0000 -0.0132 -0.0728  0.1140  0.1143 -0.1725 </r>
        <r> -0.0001  0.0002  0.0006 -0.0005  0.0000  0.0000 -0.0000 -0.0000 -0.0000 </r>
       </set>
       <set comment="band 9">
        <r> -0.0000  0.0000  0.0000 -0.0000  0.1170  0.0458 -0.1267  0.0291  0.2366 </r>
        <r> -0.0001  0.0003 -0.0000 -0.0001  0.0000 -0.0000  0.0000  0.0002 -0.0000 </r>
       </set>
       <set comment="band 10">
        <r>  0.0000 -0.0000 -0.0000  0.0000 -0.0124  0.0508  0.2073 -0.0277 -0.1667 </r>
        <r> -0.0000 -0.0001 -0.0002  0.0001  0.0000  0.0000  0.0000  0.0000  0.0000 </r>
       </set>
       <set comment="band 11">
        <r>  0.0151  0.0026  0.0118  0.0062  0.0126  0.0083  0.0000  0.0033  0.0001 </r>
        <r>  0.1897  0.0001  0.0006  0.0001  0.0000  0.0000  0.0000  0.0000  0.0000 </r>
       </set>
       <set comment="band 12">
        <r> -0.0150 -0.0026 -0.0116 -0.0063 -0.0125 -0.0101 -0.0003 -0.0052 -0.0002 </r>
        <r> -0.1870 -0.0001 -0.0006 -0.0001 -0.0000 -0.0000 -0.0000 -0.0000 -0.0000 </r>
       </set>
       <set comment="band 13">
        <r>  0.1563  0.0043  0.0042  0.0140  0.0014  0.0002  0.0002  0.0004  0.0000 </r>
        <r>  0.0131  0.0176  0.0358  0.0225  0.0009  0.0004  0.0000  0.0002  0.0000 </r>
       </set>
       <set comment="band 14">
        <r> -0.1584 -0.0045 -0.0045 -0.0134 -0.0015 -0.0002 -0.0002 -0.0003 -0.0001 </r>
        <r> -0.0127 -0.0161 -0.0358 -0.0222 -0.0009 -0.0005 -0.0000 -0.0002 -0.0000 </r>
       </set>
       <set comment="band 15">
        <r>  0.0150  0.0483  0.0217  0.0366  0.0008  0.0026  0.0015  0.0002  0.0013 </r>
        <r>  0.0038  0.0161  0.0247  0.0724  0.0002  0.0004  0.0002  0.0001  0.0002 </r>
       </set>
       <set comment="band 16">
        <r> -0.0157 -0.0354 -0.0280 -0.0408 -0.0008 -0.0029 -0.0012  0.0000 -0.0014 </r>
        <r> -0.0039 -0.0309 -0.0213 -0.0699 -0.0003 -0.0004 -0.0002 -0.0000 -0.0002 </r>
       </set>
       <set comment="band 17">
        <r> -0.0011 -0.0564 -0.0225 -0.0205 -0.0011 -0.0004 -0.0021 -0.0035 -0.0003 </r>
        <r> -0.0009 -0.0706 -0.0322 -0.0178 -0.0001 -0.0001 -0.0004 -0.0005 -0.0001 </r>
       </set>
       <set comment="band 18">
        <r>  0.0033  0.0419  0.0306  0.0254  0.0010  0.0003  0.0017  0.0038  0.0003 </r>
        <r>  0.0003  0.0868  0.0279  0.0134  0.0002  0.0001  0.0004  0.0003  0.0001 </r>
       </set>
       <set comment="band 19">
        <r> -0.0223  0.0000 -0.0131 -0.0019 -0.0022 -0.0008 -0.0011 -0.0001 -0.0001 </r>
        <r> -0.0056 -0.0012 -0.0141 -0.0088 -0.0023  0.0001 -0.0008 -0.0000  0.0001 </r>
       </set>
       <set comment="band 20">
        <r>  0.0208  0.0000  0.0025  0.0020  0.0007  0.0008  0.0003  0.0000  0.0005 </r>
        <r>  0.0046 -0.0002  0.0094  0.0121  0.0011  0.0008 -0.0001  0.0001  0.0002 </r>
       </set>
       <set comment="band 21">
        <r>  0.0078  0.0044 -0.0041  0.0090  0.0007  0.0019  0.0007 -0.0000  0.0010 </r>
        <r> -0.0006  0.0018  0.0051  0.0058  0.0006  0.0018  0.0000  0.0000  0.0007 </r>
       </set>
      </set>
      <set comment="kpoint 28">
       <set comment="band 1">
        <r>  0.0000  0.0000  0.0002  0.0001  0.0599  0.0737 -0.0449  0.0127  0.0351 </r>
        <r>  0.0047  0.0000  0.0000  0.0001 -0.0000  0.0000 -0.0000 -0.0000 -0.0000 </r>
       </set>
       <set comment="band 2">
        <r> -0.0000  0.0001 -0.0001 -0.0001 -0.0746 -0.0671 -0.0167  0.1062 -0.0515 </r>
        <r> -0.0019 -0.0001 -0.0001 -0.0001  0.0000  0.0000 -0.0000 -0.0000 -0.0000 </r>
       </set>
       <set comment="band 3">
        <r>  0.0000 -0.0000  0.0000  0.0000  0.1257  0.0700 -0.0424 -0.0415  0.1140 </r>
        <r>  0.0001  0.0004  0.0003  0.0001 -0.0000 -0.0000  0.0000  0.0001  0.0000 </r>
       </set>
       <set comment="band 4">
        <r> -0.0000 -0.0000 -0.0000 -0.0000 -0.1208 -0.0757  0.1246 -0.0801 -0.1000 </r>
        <r> -0.0001 -0.0001 -0.0004 -0.0000 -0.0000 -0.0001 -0.0000 -0.0001 -0.0000 </r>
       </set>
       <set comment="band 5">
        <r> -0.0001 -0.0002 -0.0001 -0.0002  0.0463 -0.0663 -0.0165 -0.0580 -0.0155 </r>
        <r> -0.0068  0.0001  0.0002 -0.0002  0.0000 -0.0000  0.0000  0.0000  0.0000 </r>
       </set>
       <set comment="band 6">
        <r>  0.0001 -0.0000  0.0000  0.0001  0.0104  0.0538 -0.0972 -0.0236  0.0923 </r>
        <r>  0.0022  0.0001 -0.0000  0.0002 -0.0000  0.0000 -0.0000 -0.0000  0.0000 </r>
       </set>
       <set comment="band 7">
        <r>  0.0000  0.0000 -0.0001 -0.0000 -0.1207  0.0056 -0.0046  0.0245 -0.0384 </r>
        <r>  0.0002 -0.0008 -0.0002  0.0003  0.0000  0.0001 -0.0000 -0.0001 -0.0000 </r>
       </set>
       <set comment="band 8">
        <r> -0.0000  0.0001 -0.0000 -0.0000 -0.0081 -0.0449  0.0161  0.1128 -0.1183 </r>
        <r>  0.0001  0.0000  0.0004 -0.0003  0.0000  0.0000  0.0000 -0.0000 -0.0000 </r>
       </set>
       <set comment="band 9">
        <r>  0.0000 -0.0000  0.0000  0.0000  0.1043  0.0745 -0.0487 -0.0252  0.1790 </r>
        <r>  0.0000  0.0001  0.0000 -0.0001  0.0000  0.0001  0.0000  0.0001  0.0000 </r>
       </set>
       <set comment="band 10">
        <r> -0.0000 -0.0000 -0.0000 -0.0000 -0.0223 -0.0224  0.1305 -0.0266 -0.0965 </r>
        <r> -0.0000  0.0002 -0.0002 -0.0001 -0.0000 -0.0001  0.0000  0.0000  0.0000 </r>
       </set>
       <set comment="band 11">
        <r>  0.0099  0.0017  0.0041  0.0076  0.0057  0.0080 -0.0001  0.0021  0.0001 </r>
        <r>  0.1242  0.0001  0.0000  0.0004  0.0000  0.0000  0.0000  0.0000  0.0000 </r>
       </set>
       <set comment="band 12">
        <r> -0.0098 -0.0017 -0.0041 -0.0076 -0.0057 -0.0093 -0.0001 -0.0033 -0.0001 </r>
        <r> -0.1224 -0.0001 -0.0000 -0.0005 -0.0000 -0.0000 -0.0000 -0.0000 -0.0000 </r>
       </set>
       <set comment="band 13">
        <r>  0.0894  0.0024  0.0076  0.0030  0.0001  0.0009  0.0001  0.0001  0.0001 </r>
        <r>  0.0075  0.0104  0.0127  0.0204  0.0003  0.0005  0.0000  0.0001  0.0000 </r>
       </set>
       <set comment="band 14">
        <r> -0.0904 -0.0031 -0.0078 -0.0022 -0.0001 -0.0008 -0.0001 -0.0002 -0.0002 </r>
        <r> -0.0072 -0.0089 -0.0126 -0.0210 -0.0002 -0.0005 -0.0000 -0.0001 -0.0000 </r>
       </set>
       <set comment="band 15">
        <r>  0.0196  0.0545  0.0417  0.0375  0.0028  0.0015  0.0027  0.0001  0.0009 </r>
        <r>  0.0050  0.0243  0.0804  0.0418  0.0005  0.0004  0.0004  0.0001  0.0002 </r>
       </set>
       <set comment="band 16">
        <r> -0.0205 -0.0455 -0.0467 -0.0402 -0.0030 -0.0016 -0.0025  0.0000 -0.0010 </r>
        <r> -0.0050 -0.0343 -0.0785 -0.0381 -0.0005 -0.0004 -0.0004 -0.0000 -0.0001 </r>
       </set>
       <set comment="band 17">
        <r> -0.0005 -0.0446 -0.0144 -0.0195 -0.0002 -0.0009 -0.0008 -0.0029 -0.0011 </r>
        <r> -0.0004 -0.0564 -0.0146 -0.0263 -0.0000 -0.0001 -0.0002 -0.0004 -0.0002 </r>
       </set>
       <set comment="band 18">
        <r>  0.0016  0.0352  0.0207  0.0225  0.0003  0.0007  0.0006  0.0030  0.0011 </r>
        <r>  0.0001  0.0666  0.0117  0.0221  0.0001  0.0001  0.0002  0.0003  0.0002 </r>
       </set>
       <set comment="band 19">
        <r> -0.0937 -0.0003 -0.0386 -0.0356 -0.0036 -0.0027 -0.0004 -0.0003 -0.0028 </r>
        <r> -0.0363 -0.0012 -0.0415 -0.0464 -0.0042 -0.0034 -0.0004 -0.0002 -0.0014 </r>
       </set>
       <set comment="band 20">
        <r>  0.0850  0.0009  0.0485  0.0322  0.0017  0.0007  0.0001  0.0002  0.0027 </r>
        <r>  0.0408 -0.0037  0.0287  0.0438  0.0041  0.0029 -0.0003  0.0003  0.0012 </r>
       </set>
       <set comment="band 21">
        <r>  0.0173  0.0165  0.0675  0.0994  0.0107  0.0189  0.0080  0.0003  0.0020 </r>
        <r>  0.0151  0.0680  0.0236  0.0079  0.0084  0.0061  0.0103  0.0003  0.0073 </r>
       </set>
      </set>
      <set comment="kpoint 29">
       <set comment="band 1">
        <r> -0.0000 -0.0000  0.0001  0.0000  0.0573  0.0055 -0.0080 -0.0116  0.0292 </r>
        <r>  0.0017 -0.0000  0.0001 -0.0000 -0.0000 -0.0000 -0.0000 -0.0000 -0.0000 </r>
       </set>
       <set comment="band 2">
        <r>  0.0000  0.0001 -0.0001  0.0000 -0.0813 -0.0012 -0.0174  0.0654 -0.0512 </r>
        <r> -0.0004 -0.0001 -0.0003  0.0002 -0.0000  0.0000  0.0000 -0.0000 -0.0000 </r>
       </set>
       <set comment="band 3">
        <r>  0.0000 -0.0000  0.0000  0.0000  0.0294  0.0922 -0.1079  0.0672  0.0272 </r>
        <r> -0.0001  0.0007  0.0001 -0.0002 -0.0000 -0.0000 -0.0000  0.0001  0.0000 </r>
       </set>
       <set comment="band 4">
        <r>  0.0000 -0.0000 -0.0000  0.0000 -0.0098 -0.0935  0.1437 -0.1243 -0.0033 </r>
        <r> -0.0000  0.0001  0.0000 -0.0005  0.0000 -0.0001  0.0000 -0.0000 -0.0000 </r>
       </set>
       <set comment="band 5">
        <r> -0.0000 -0.0001 -0.0001 -0.0001  0.0293 -0.0210 -0.0131 -0.0214 -0.0157 </r>
        <r> -0.0025 -0.0002  0.0003  0.0002  0.0000  0.0000 -0.0000 -0.0000  0.0000 </r>
       </set>
       <set comment="band 6">
        <r>  0.0000  0.0000 -0.0000  0.0000 -0.0371 -0.0031 -0.0334  0.0367 -0.0049 </r>
        <r>  0.0008 -0.0003 -0.0003  0.0001 -0.0000  0.0001  0.0000 -0.0000 -0.0000 </r>
       </set>
       <set comment="band 7">
        <r>  0.0000  0.0000  0.0000 -0.0000 -0.0126 -0.0759 -0.0426  0.0315  0.0038 </r>
        <r>  0.0002  0.0000  0.0001 -0.0003 -0.0000 -0.0000 -0.0000 -0.0001 -0.0000 </r>
       </set>
       <set comment="band 8">
        <r> -0.0000 -0.0000 -0.0000 -0.0000 -0.0001  0.0800  0.0919 -0.1589 -0.0025 </r>
        <r> -0.0003 -0.0002  0.0002  0.0002 -0.0000 -0.0000  0.0000 -0.0000  0.0000 </r>
       </set>
       <set comment="band 9">
        <r> -0.0000  0.0000  0.0000 -0.0000  0.0201 -0.0736 -0.0518  0.1065  0.0983 </r>
        <r> -0.0001  0.0001 -0.0002  0.0001  0.0000  0.0000  0.0000  0.0000 -0.0000 </r>
       </set>
       <set comment="band 10">
        <r>  0.0000  0.0000 -0.0000  0.0000  0.0048  0.0912  0.0386  0.0092 -0.0808 </r>
        <r>  0.0000 -0.0002 -0.0001  0.0002  0.0000  0.0001 -0.0000  0.0000 -0.0000 </r>
       </set>
       <set comment="band 11">
        <r>  0.0023  0.0002  0.0080  0.0015  0.0077  0.0017  0.0002  0.0004  0.0001 </r>
        <r>  0.0759  0.0000  0.0001 -0.0000  0.0000  0.0000  0.0000 -0.0000  0.0000 </r>
       </set>
       <set comment="band 12">
        <r> -0.0023 -0.0002 -0.0079 -0.0015 -0.0076 -0.0023 -0.0002 -0.0010 -0.0001 </r>
        <r> -0.0749 -0.0000 -0.0001 -0.0000 -0.0000 -0.0000 -0.0000 -0.0000  0.0000 </r>
       </set>
       <set comment="band 13">
        <r>  0.0918 -0.0000  0.0004  0.0024  0.0006  0.0001  0.0007  0.0000 -0.0000 </r>
        <r>  0.0041  0.0024  0.0288  0.0056  0.0007  0.0002 -0.0000  0.0000  0.0000 </r>
       </set>
       <set comment="band 14">
        <r> -0.0931  0.0000 -0.0007 -0.0019 -0.0007 -0.0001 -0.0007 -0.0000 -0.0000 </r>
        <r> -0.0041 -0.0015 -0.0291 -0.0054 -0.0007 -0.0002 -0.0000 -0.0000 -0.0000 </r>
       </set>
       <set comment="band 15">
        <r>  0.0018  0.0480  0.0036  0.0171  0.0000  0.0010  0.0009  0.0006  0.0005 </r>
        <r>  0.0001  0.0090  0.0066  0.0512  0.0000  0.0002  0.0000 -0.0000  0.0000 </r>
       </set>
       <set comment="band 16">
        <r> -0.0012 -0.0329 -0.0091 -0.0294  0.0000 -0.0015 -0.0006 -0.0002 -0.0004 </r>
        <r> -0.0003 -0.0341 -0.0046 -0.0455 -0.0000 -0.0001 -0.0001 -0.0000 -0.0001 </r>
       </set>
       <set comment="band 17">
        <r> -0.0001 -0.0144 -0.0014 -0.0083 -0.0001 -0.0000 -0.0003 -0.0004 -0.0000 </r>
        <r> -0.0001 -0.0100 -0.0028 -0.0052 -0.0000 -0.0000 -0.0000 -0.0001 -0.0000 </r>
       </set>
       <set comment="band 18">
        <r>  0.0009 -0.0014  0.0075  0.0206  0.0000  0.0003  0.0000  0.0003 -0.0000 </r>
        <r>  0.0000  0.0356  0.0008 -0.0013  0.0000  0.0000  0.0001  0.0000  0.0000 </r>
       </set>
       <set comment="band 19">
        <r>  0.0101  0.0050  0.2131  0.0289  0.0377  0.0032  0.0008 -0.0000  0.0001 </r>
        <r>  0.0553  0.0549  0.0036  0.0058  0.0044  0.0000  0.0214  0.0000  0.0000 </r>
       </set>
       <set comment="band 20">
        <r>  0.0081 -0.0027 -0.1509 -0.0193 -0.0290 -0.0029  0.0023  0.0001 -0.0001 </r>
        <r> -0.0358 -0.0411  0.0116 -0.0025 -0.0020  0.0001 -0.0151 -0.0000 -0.0000 </r>
       </set>
       <set comment="band 21">
        <r> -0.1000 -0.0106 -0.0014 -0.0027 -0.0000 -0.0002 -0.0136 -0.0003 -0.0003 </r>
        <r> -0.0041  0.0001 -0.0624 -0.0322 -0.0143 -0.0002 -0.0003  0.0000 -0.0000 </r>
       </set>
      </set>
      <set comment="kpoint 30">
       <set comment="band 1">
        <r> -0.0000  0.0000  0.0000  0.0000  0.0000  0.0000 -0.0000  0.0000  0.0000 </r>
        <r>  0.0000  0.0000 -0.0000  0.0000  0.0000 -0.0000  0.0000 -0.0000  0.0000 </r>
       </set>
       <set comment="band 2">
        <r> -0.0000  0.0000 -0.0000 -0.0000 -0.0000 -0.0000  0.0000  0.0000 -0.0000 </r>
        <r> -0.0000  0.0000  0.0000 -0.0000 -0.0000  0.0000 -0.0000  0.0000 -0.0000 </r>
       </set>
       <set comment="band 3">
        <r>  0.0000 -0.0000  0.0000 -0.0000 -0.0000 -0.0001  0.0001 -0.0000 -0.0000 </r>
        <r>  0.0000 -0.0000 -0.0000 -0.0000  0.0000 -0.0000 -0.0000 -0.0000 -0.0000 </r>
       </set>
       <set comment="band 4">
        <r>  0.0000  0.0000  0.0000  0.0000  0.0001  0.0001 -0.0001  0.0000  0.0000 </r>
        <r> -0.0000  0.0000  0.0000  0.0000 -0.0000  0.0000  0.0000  0.0000  0.0000 </r>
       </set>
       <set comment="band 5">
        <r>  0.0000 -0.0000  0.0000  0.0000 -0.0000 -0.0000 -0.0000 -0.0000 -0.0000 </r>
        <r> -0.0000 -0.0000 -0.0000 -0.0000 -0.0000 -0.0000  0.0000 -0.0000 -0.0000 </r>
       </set>
       <set comment="band 6">
        <r>  0.0000  0.0000  0.0000  0.0000  0.0000  0.0000  0.0000 -0.0000  0.0000 </r>
        <r>  0.0000 -0.0000  0.0000  0.0000 -0.0000 -0.0000 -0.0000  0.0000  0.0000 </r>
       </set>
       <set comment="band 7">
        <r>  0.0000 -0.0000  0.0000  0.0000  0.0000  0.0000  0.0000  0.0000 -0.0000 </r>
        <r>  0.0000  0.0000 -0.0000  0.0000  0.0000  0.0000 -0.0000  0.0000  0.0000 </r>
       </set>
       <set comment="band 8">
        <r> -0.0000  0.0000 -0.0000  0.0000  0.0000  0.0000 -0.0000  0.0000 -0.0000 </r>
        <r>  0.0000 -0.0000  0.0000 -0.0000  0.0000  0.0000  0.0000  0.0000  0.0000 </r>
       </set>
       <set comment="band 9">
        <r>  0.0000 -0.0000  0.0000 -0.0000  0.0000 -0.0000  0.0001 -0.0000  0.0001 </r>
        <r> -0.0000 -0.0000  0.0000 -0.0000  0.0000  0.0000  0.0000 -0.0000 -0.0000 </r>
       </set>
       <set comment="band 10">
        <r> -0.0000 -0.0000  0.0000  0.0000 -0.0001 -0.0000 -0.0001 -0.0000 -0.0001 </r>
        <r>  0.0000  0.0000 -0.0000  0.0000 -0.0000 -0.0000 -0.0000 -0.0000  0.0000 </r>
       </set>
       <set comment="band 11">
        <r>  0.0000  0.0000  0.0000  0.0000 -0.0000 -0.0000 -0.0000 -0.0000  0.0000 </r>
        <r> -0.0000  0.0000 -0.0000 -0.0000  0.0000  0.0000  0.0000  0.0000 -0.0000 </r>
       </set>
       <set comment="band 12">
        <r>  0.0000  0.0000  0.0000  0.0000  0.0000  0.0000  0.0000  0.0000  0.0000 </r>
        <r>  0.0000 -0.0000  0.0000  0.0000  0.0000  0.0000 -0.0000 -0.0000  0.0000 </r>
       </set>
       <set comment="band 13">
        <r> -0.0000 -0.0000  0.0000  0.0000  0.0000 -0.0000 -0.0000 -0.0000 -0.0000 </r>
        <r>  0.0000  0.0000 -0.0000 -0.0000  0.0000  0.0000 -0.0000 -0.0000 -0.0000 </r>
       </set>
       <set comment="band 14">
        <r>  0.0000  0.0000 -0.0000 -0.0000  0.0000  0.0000 -0.0000 -0.0000 -0.0000 </r>
        <r>  0.0000 -0.0000 -0.0000 -0.0000  0.0000  0.0000  0.0000  0.0000 -0.0000 </r>
       </set>
       <set comment="band 15">
        <r>  0.0000 -0.0000 -0.0000 -0.0000  0.0000  0.0000 -0.0000 -0.0000 -0.0000 </r>
        <r>  0.0000 -0.0000 -0.0000 -0.0000 -0.0000 -0.0000 -0.0000 -0.0000 -0.0000 </r>
       </set>
       <set comment="band 16">
        <r> -0.0000  0.0000  0.0000  0.0000  0.0000 -0.0000  0.0000  0.0000 -0.0000 </r>
        <r>  0.0000  0.0000  0.0000  0.0000 -0.0000 -0.0000  0.0000  0.0000  0.0000 </r>
       </set>
       <set comment="band 17">
        <r>  0.0000 -0.0000  0.0000 -0.0000  0.0000  0.0000  0.0000 -0.0000  0.0000 </r>
        <r>  0.0000 -0.0000  0.0000 -0.0000  0.0000  0.0000  0.0000 -0.0000 -0.0000 </r>
       </set>
       <set comment="band 18">
        <r>  0.0000  0.0000 -0.0000 -0.0000 -0.0000  0.0000  0.0000  0.0000 -0.0000 </r>
        <r>  0.0000  0.0000  0.0000 -0.0000 -0.0000  0.0000 -0.0000 -0.0000 -0.0000 </r>
       </set>
       <set comment="band 19">
        <r>  0.0602  0.0050  0.0715  0.0084  0.0115  0.0014  0.0061  0.0001  0.0006 </r>
        <r>  0.0223  0.0178  0.0351  0.0212  0.0082  0.0002  0.0067  0.0000  0.0000 </r>
       </set>
       <set comment="band 20">
        <r> -0.0601 -0.0050 -0.0717 -0.0085 -0.0106 -0.0014 -0.0055 -0.0001 -0.0006 </r>
        <r> -0.0225 -0.0179 -0.0350 -0.0211 -0.0082 -0.0002 -0.0068 -0.0000 -0.0000 </r>
       </set>
       <set comment="band 21">
        <r> -0.0176 -0.0001 -0.0211 -0.0107  0.0001  0.0023 -0.0003  0.0000 -0.0006 </r>
        <r> -0.0051  0.0156 -0.0171 -0.0139 -0.0008 -0.0020 -0.0000  0.0001  0.0003 </r>
       </set>
      </set>
     </set>
    </set>
   </array>
  </projected>
 </calculation>
 <structure name="finalpos" >
  <crystal>
   <varray name="basis" >
    <v>       0.00000000       3.02920000       3.02920000 </v>
    <v>       3.02920000       0.00000000       3.02920000 </v>
    <v>       3.02920000       3.02920000       0.00000000 </v>
   </varray>
   <i name="volume">     55.59219731 </i>
   <varray name="rec_basis" >
    <v>      -0.16506008       0.16506008       0.16506008 </v>
    <v>       0.16506008      -0.16506008       0.16506008 </v>
    <v>       0.16506008       0.16506008      -0.16506008 </v>
   </varray>
  </crystal>
  <varray name="positions" >
   <v>       0.00000000       0.00000000       0.00000000 </v>
   <v>       0.75000000       0.75000000       0.75000000 </v>
  </varray>
 </structure>
</modeling>
