   2   2   1   0
  0.2234237E+02  0.3983133E-09  0.3983133E-09  0.3983133E-09  0.5000000E-15
  1.000000000000000E-004
  CAR 
 unknown system                          
     62.44169508    -27.30648858  301      5.07764769      1.00000000
    -27.306  0.0000E+00  0.0000E+00  0.0000E+00  0.0000E+00
    -27.007  0.0000E+00  0.0000E+00  0.0000E+00  0.0000E+00
    -26.708  0.0000E+00  0.0000E+00  0.0000E+00  0.0000E+00
    -26.409  0.0000E+00  0.0000E+00  0.0000E+00  0.0000E+00
    -26.110  0.0000E+00  0.0000E+00  0.0000E+00  0.0000E+00
    -25.811  0.0000E+00  0.0000E+00  0.0000E+00  0.0000E+00
    -25.512  0.0000E+00  0.0000E+00  0.0000E+00  0.0000E+00
    -25.212  0.0000E+00  0.0000E+00  0.0000E+00  0.0000E+00
    -24.913  0.0000E+00  0.0000E+00  0.0000E+00  0.0000E+00
    -24.614  0.0000E+00  0.0000E+00  0.0000E+00  0.0000E+00
    -24.315  0.0000E+00  0.0000E+00  0.0000E+00  0.0000E+00
    -24.016  0.0000E+00  0.0000E+00  0.0000E+00  0.0000E+00
    -23.717  0.0000E+00  0.0000E+00  0.0000E+00  0.0000E+00
    -23.417  0.3321E-07  0.3321E-07  0.9935E-08  0.9936E-08
    -23.118  0.9811E+01  0.9811E+01  0.2935E+01  0.2935E+01
    -22.819  0.2293E+02  0.2293E+02  0.9796E+01  0.9796E+01
    -22.520  0.6816E+00  0.6816E+00  0.1000E+02  0.1000E+02
    -22.221  0.0000E+00  0.0000E+00  0.1000E+02  0.1000E+02
    -21.922  0.0000E+00  0.0000E+00  0.1000E+02  0.1000E+02
    -21.622  0.0000E+00  0.0000E+00  0.1000E+02  0.1000E+02
    -21.323  0.0000E+00  0.0000E+00  0.1000E+02  0.1000E+02
    -21.024  0.0000E+00  0.0000E+00  0.1000E+02  0.1000E+02
    -20.725  0.0000E+00  0.0000E+00  0.1000E+02  0.1000E+02
    -20.426  0.0000E+00  0.0000E+00  0.1000E+02  0.1000E+02
    -20.127  0.0000E+00  0.0000E+00  0.1000E+02  0.1000E+02
    -19.827  0.0000E+00  0.0000E+00  0.1000E+02  0.1000E+02
    -19.528  0.0000E+00  0.0000E+00  0.1000E+02  0.1000E+02
    -19.229  0.0000E+00  0.0000E+00  0.1000E+02  0.1000E+02
    -18.930  0.0000E+00  0.0000E+00  0.1000E+02  0.1000E+02
    -18.631  0.0000E+00  0.0000E+00  0.1000E+02  0.1000E+02
    -18.332  0.0000E+00  0.0000E+00  0.1000E+02  0.1000E+02
    -18.033  0.0000E+00  0.0000E+00  0.1000E+02  0.1000E+02
    -17.733  0.0000E+00  0.0000E+00  0.1000E+02  0.1000E+02
    -17.434  0.0000E+00  0.0000E+00  0.1000E+02  0.1000E+02
    -17.135  0.0000E+00  0.0000E+00  0.1000E+02  0.1000E+02
    -16.836  0.0000E+00  0.0000E+00  0.1000E+02  0.1000E+02
    -16.537  0.0000E+00  0.0000E+00  0.1000E+02  0.1000E+02
    -16.238  0.0000E+00  0.0000E+00  0.1000E+02  0.1000E+02
    -15.938  0.0000E+00  0.0000E+00  0.1000E+02  0.1000E+02
    -15.639  0.0000E+00  0.0000E+00  0.1000E+02  0.1000E+02
    -15.340  0.0000E+00  0.0000E+00  0.1000E+02  0.1000E+02
    -15.041  0.0000E+00  0.0000E+00  0.1000E+02  0.1000E+02
    -14.742  0.0000E+00  0.0000E+00  0.1000E+02  0.1000E+02
    -14.443  0.0000E+00  0.0000E+00  0.1000E+02  0.1000E+02
    -14.143  0.0000E+00  0.0000E+00  0.1000E+02  0.1000E+02
    -13.844  0.0000E+00  0.0000E+00  0.1000E+02  0.1000E+02
    -13.545  0.0000E+00  0.0000E+00  0.1000E+02  0.1000E+02
    -13.246  0.0000E+00  0.0000E+00  0.1000E+02  0.1000E+02
    -12.947  0.0000E+00  0.0000E+00  0.1000E+02  0.1000E+02
    -12.648  0.0000E+00  0.0000E+00  0.1000E+02  0.1000E+02
    -12.348  0.0000E+00  0.0000E+00  0.1000E+02  0.1000E+02
    -12.049  0.0000E+00  0.0000E+00  0.1000E+02  0.1000E+02
    -11.750  0.0000E+00  0.0000E+00  0.1000E+02  0.1000E+02
    -11.451  0.0000E+00  0.0000E+00  0.1000E+02  0.1000E+02
    -11.152  0.0000E+00  0.0000E+00  0.1000E+02  0.1000E+02
    -10.853  0.0000E+00  0.0000E+00  0.1000E+02  0.1000E+02
    -10.553  0.0000E+00  0.0000E+00  0.1000E+02  0.1000E+02
    -10.254  0.0000E+00  0.0000E+00  0.1000E+02  0.1000E+02
     -9.955  0.0000E+00  0.0000E+00  0.1000E+02  0.1000E+02
     -9.656  0.3436E-17  0.3436E-17  0.1000E+02  0.1000E+02
     -9.357  0.9717E-02  0.9717E-02  0.1000E+02  0.1000E+02
     -9.058  0.9298E-02  0.9298E-02  0.1001E+02  0.1001E+02
     -8.759  0.2129E+00  0.2129E+00  0.1007E+02  0.1007E+02
     -8.459  0.1640E-02  0.1640E-02  0.1007E+02  0.1007E+02
     -8.160  0.1841E+00  0.1841E+00  0.1013E+02  0.1013E+02
     -7.861  0.4933E+00  0.4933E+00  0.1027E+02  0.1027E+02
     -7.562  0.1863E-02  0.1862E-02  0.1027E+02  0.1027E+02
     -7.263  0.9831E-01  0.9831E-01  0.1030E+02  0.1030E+02
     -6.964  0.6531E+00  0.6531E+00  0.1050E+02  0.1050E+02
     -6.664  0.5175E+00  0.5175E+00  0.1065E+02  0.1065E+02
     -6.365  0.1517E-09  0.1518E-09  0.1065E+02  0.1065E+02
     -6.066  0.3742E+00  0.3742E+00  0.1076E+02  0.1076E+02
     -5.767  0.5543E+00  0.5543E+00  0.1093E+02  0.1093E+02
     -5.468  0.0000E+00  0.0000E+00  0.1093E+02  0.1093E+02
     -5.169  0.1444E-08  0.1445E-08  0.1093E+02  0.1093E+02
     -4.869  0.3405E+00  0.3406E+00  0.1103E+02  0.1103E+02
     -4.570  0.1236E+00  0.1235E+00  0.1107E+02  0.1107E+02
     -4.271  0.0000E+00  0.0000E+00  0.1107E+02  0.1107E+02
     -3.972  0.3562E-05  0.3564E-05  0.1107E+02  0.1107E+02
     -3.673  0.5712E+00  0.5712E+00  0.1124E+02  0.1124E+02
     -3.374  0.4520E+00  0.4520E+00  0.1138E+02  0.1138E+02
     -3.074  0.3385E+00  0.3385E+00  0.1148E+02  0.1148E+02
     -2.775  0.8766E-02  0.8768E-02  0.1148E+02  0.1148E+02
     -2.476  0.7286E+00  0.7286E+00  0.1170E+02  0.1170E+02
     -2.177  0.5466E-02  0.5464E-02  0.1170E+02  0.1170E+02
     -1.878  0.7925E-01  0.7926E-01  0.1172E+02  0.1172E+02
     -1.579  0.1374E+00  0.1374E+00  0.1176E+02  0.1176E+02
     -1.280  0.3736E-12  0.3740E-12  0.1176E+02  0.1176E+02
     -0.980  0.3429E+00  0.3429E+00  0.1187E+02  0.1187E+02
     -0.681  0.2847E-01  0.2847E-01  0.1188E+02  0.1188E+02
     -0.382  0.5419E-06  0.5424E-06  0.1188E+02  0.1188E+02
     -0.083  0.3528E+00  0.3528E+00  0.1198E+02  0.1198E+02
      0.216  0.1427E+00  0.1427E+00  0.1202E+02  0.1202E+02
      0.515  0.2473E+00  0.2473E+00  0.1210E+02  0.1210E+02
      0.815  0.1109E+01  0.1109E+01  0.1243E+02  0.1243E+02
      1.114  0.1226E-01  0.1226E-01  0.1243E+02  0.1243E+02
      1.413  0.5447E+00  0.5446E+00  0.1260E+02  0.1260E+02
      1.712  0.9479E+00  0.9479E+00  0.1288E+02  0.1288E+02
      2.011  0.5229E+00  0.5229E+00  0.1304E+02  0.1304E+02
      2.310  0.7368E+00  0.7368E+00  0.1326E+02  0.1326E+02
      2.610  0.4409E+00  0.4409E+00  0.1339E+02  0.1339E+02
      2.909  0.6376E+00  0.6376E+00  0.1358E+02  0.1358E+02
      3.208  0.3260E+00  0.3260E+00  0.1368E+02  0.1368E+02
      3.507  0.4389E+00  0.4389E+00  0.1381E+02  0.1381E+02
      3.806  0.1633E+00  0.1633E+00  0.1386E+02  0.1386E+02
      4.105  0.1785E+00  0.1785E+00  0.1391E+02  0.1391E+02
      4.405  0.2548E+00  0.2548E+00  0.1399E+02  0.1399E+02
      4.704  0.1909E-03  0.1908E-03  0.1399E+02  0.1399E+02
      5.003  0.4624E-01  0.4624E-01  0.1400E+02  0.1400E+02
      5.302  0.0000E+00  0.0000E+00  0.1400E+02  0.1400E+02
      5.601  0.8485E-03  0.8490E-03  0.1400E+02  0.1400E+02
      5.900  0.1079E+00  0.1079E+00  0.1403E+02  0.1403E+02
      6.199  0.2781E+00  0.2781E+00  0.1412E+02  0.1412E+02
      6.499  0.3850E+00  0.3850E+00  0.1423E+02  0.1423E+02
      6.798  0.1248E+00  0.1248E+00  0.1427E+02  0.1427E+02
      7.097  0.4750E+00  0.4750E+00  0.1441E+02  0.1441E+02
      7.396  0.9396E+00  0.9396E+00  0.1469E+02  0.1469E+02
      7.695  0.2416E+00  0.2416E+00  0.1476E+02  0.1476E+02
      7.994  0.3722E-02  0.3723E-02  0.1477E+02  0.1477E+02
      8.294  0.1043E+01  0.1043E+01  0.1508E+02  0.1508E+02
      8.593  0.2220E+00  0.2220E+00  0.1514E+02  0.1514E+02
      8.892  0.1166E+01  0.1166E+01  0.1549E+02  0.1549E+02
      9.191  0.7024E+00  0.7024E+00  0.1570E+02  0.1570E+02
      9.490  0.9625E+00  0.9625E+00  0.1599E+02  0.1599E+02
      9.789  0.3939E+00  0.3939E+00  0.1611E+02  0.1611E+02
     10.089  0.8077E+00  0.8077E+00  0.1635E+02  0.1635E+02
     10.388  0.2253E+00  0.2253E+00  0.1642E+02  0.1642E+02
     10.687  0.7221E+00  0.7221E+00  0.1663E+02  0.1663E+02
     10.986  0.3698E+00  0.3698E+00  0.1674E+02  0.1674E+02
     11.285  0.2060E+00  0.2060E+00  0.1681E+02  0.1681E+02
     11.584  0.7309E-01  0.7310E-01  0.1683E+02  0.1683E+02
     11.884  0.4099E+00  0.4098E+00  0.1695E+02  0.1695E+02
     12.183  0.7535E+00  0.7535E+00  0.1718E+02  0.1718E+02
     12.482  0.8732E+00  0.8732E+00  0.1744E+02  0.1744E+02
     12.781  0.4675E+00  0.4675E+00  0.1758E+02  0.1758E+02
     13.080  0.1237E+01  0.1237E+01  0.1795E+02  0.1795E+02
     13.379  0.1933E+00  0.1933E+00  0.1800E+02  0.1800E+02
     13.679  0.6178E+00  0.6178E+00  0.1819E+02  0.1819E+02
     13.978  0.4542E+00  0.4542E+00  0.1833E+02  0.1833E+02
     14.277  0.6295E+00  0.6295E+00  0.1851E+02  0.1851E+02
     14.576  0.4928E+00  0.4928E+00  0.1866E+02  0.1866E+02
     14.875  0.4065E+00  0.4065E+00  0.1878E+02  0.1878E+02
     15.174  0.9775E+00  0.9775E+00  0.1908E+02  0.1908E+02
     15.473  0.5510E+00  0.5511E+00  0.1924E+02  0.1924E+02
     15.773  0.6294E+00  0.6294E+00  0.1943E+02  0.1943E+02
     16.072  0.4757E+00  0.4757E+00  0.1957E+02  0.1957E+02
     16.371  0.3056E+00  0.3056E+00  0.1966E+02  0.1966E+02
     16.670  0.4796E+00  0.4796E+00  0.1981E+02  0.1981E+02
     16.969  0.3836E+00  0.3836E+00  0.1992E+02  0.1992E+02
     17.268  0.1284E+01  0.1284E+01  0.2030E+02  0.2030E+02
     17.568  0.2959E+00  0.2958E+00  0.2039E+02  0.2039E+02
     17.867  0.1008E+01  0.1008E+01  0.2069E+02  0.2069E+02
     18.166  0.1224E+01  0.1224E+01  0.2106E+02  0.2106E+02
     18.465  0.8772E+00  0.8772E+00  0.2132E+02  0.2132E+02
     18.764  0.6213E+00  0.6214E+00  0.2151E+02  0.2151E+02
     19.063  0.1635E+01  0.1635E+01  0.2200E+02  0.2200E+02
     19.363  0.3156E+00  0.3156E+00  0.2209E+02  0.2209E+02
     19.662  0.9370E-01  0.9370E-01  0.2212E+02  0.2212E+02
     19.961  0.1397E+01  0.1397E+01  0.2254E+02  0.2254E+02
     20.260  0.1033E+00  0.1033E+00  0.2257E+02  0.2257E+02
     20.559  0.5456E+00  0.5455E+00  0.2273E+02  0.2273E+02
     20.858  0.3833E+00  0.3833E+00  0.2285E+02  0.2285E+02
     21.158  0.9256E-01  0.9256E-01  0.2287E+02  0.2287E+02
     21.457  0.0000E+00  0.0000E+00  0.2288E+02  0.2288E+02
     21.756  0.1915E-01  0.1915E-01  0.2288E+02  0.2288E+02
     22.055  0.1161E+01  0.1161E+01  0.2323E+02  0.2323E+02
     22.354  0.8441E+00  0.8440E+00  0.2348E+02  0.2348E+02
     22.653  0.2273E+01  0.2273E+01  0.2416E+02  0.2416E+02
     22.952  0.1001E+01  0.1001E+01  0.2446E+02  0.2446E+02
     23.252  0.8351E+00  0.8351E+00  0.2471E+02  0.2471E+02
     23.551  0.6598E+00  0.6598E+00  0.2491E+02  0.2491E+02
     23.850  0.1005E+01  0.1005E+01  0.2521E+02  0.2521E+02
     24.149  0.1326E+00  0.1325E+00  0.2525E+02  0.2525E+02
     24.448  0.1232E+01  0.1232E+01  0.2562E+02  0.2562E+02
     24.747  0.5561E+00  0.5561E+00  0.2578E+02  0.2578E+02
     25.047  0.1322E+01  0.1322E+01  0.2618E+02  0.2618E+02
     25.346  0.8118E+00  0.8119E+00  0.2642E+02  0.2642E+02
     25.645  0.5887E+00  0.5886E+00  0.2660E+02  0.2660E+02
     25.944  0.2470E+00  0.2470E+00  0.2667E+02  0.2667E+02
     26.243  0.2009E+00  0.2009E+00  0.2673E+02  0.2673E+02
     26.542  0.7395E+00  0.7395E+00  0.2695E+02  0.2695E+02
     26.842  0.4124E+00  0.4124E+00  0.2708E+02  0.2708E+02
     27.141  0.9647E+00  0.9647E+00  0.2736E+02  0.2736E+02
     27.440  0.7910E+00  0.7910E+00  0.2760E+02  0.2760E+02
     27.739  0.1013E+01  0.1013E+01  0.2790E+02  0.2790E+02
     28.038  0.8049E+00  0.8049E+00  0.2815E+02  0.2815E+02
     28.337  0.8616E+00  0.8617E+00  0.2840E+02  0.2840E+02
     28.637  0.1562E+01  0.1562E+01  0.2887E+02  0.2887E+02
     28.936  0.1789E+01  0.1789E+01  0.2941E+02  0.2941E+02
     29.235  0.9401E+00  0.9401E+00  0.2969E+02  0.2969E+02
     29.534  0.9556E+00  0.9556E+00  0.2997E+02  0.2997E+02
     29.833  0.1182E+01  0.1182E+01  0.3033E+02  0.3033E+02
     30.132  0.3568E+00  0.3568E+00  0.3043E+02  0.3043E+02
     30.432  0.1082E+01  0.1082E+01  0.3076E+02  0.3076E+02
     30.731  0.8885E+00  0.8886E+00  0.3102E+02  0.3102E+02
     31.030  0.3341E+00  0.3341E+00  0.3112E+02  0.3112E+02
     31.329  0.4077E+00  0.4077E+00  0.3125E+02  0.3125E+02
     31.628  0.4330E+00  0.4330E+00  0.3137E+02  0.3137E+02
     31.927  0.9315E+00  0.9315E+00  0.3165E+02  0.3165E+02
     32.226  0.8686E+00  0.8687E+00  0.3191E+02  0.3191E+02
     32.526  0.1092E+01  0.1092E+01  0.3224E+02  0.3224E+02
     32.825  0.7290E+00  0.7290E+00  0.3246E+02  0.3246E+02
     33.124  0.2423E+00  0.2423E+00  0.3253E+02  0.3253E+02
     33.423  0.1093E+01  0.1093E+01  0.3286E+02  0.3286E+02
     33.722  0.9650E+00  0.9650E+00  0.3315E+02  0.3315E+02
     34.021  0.2263E+01  0.2263E+01  0.3382E+02  0.3382E+02
     34.321  0.1282E+01  0.1282E+01  0.3421E+02  0.3421E+02
     34.620  0.1213E+01  0.1213E+01  0.3457E+02  0.3457E+02
     34.919  0.4305E+00  0.4305E+00  0.3470E+02  0.3470E+02
     35.218  0.1258E+01  0.1258E+01  0.3508E+02  0.3508E+02
     35.517  0.1213E+01  0.1213E+01  0.3544E+02  0.3544E+02
     35.816  0.2252E+00  0.2251E+00  0.3551E+02  0.3551E+02
     36.116  0.1248E+01  0.1248E+01  0.3588E+02  0.3588E+02
     36.415  0.1469E+01  0.1469E+01  0.3632E+02  0.3632E+02
     36.714  0.5146E+00  0.5146E+00  0.3647E+02  0.3647E+02
     37.013  0.9053E+00  0.9050E+00  0.3674E+02  0.3674E+02
     37.312  0.9518E+00  0.9521E+00  0.3703E+02  0.3703E+02
     37.611  0.9258E+00  0.9257E+00  0.3730E+02  0.3730E+02
     37.911  0.4975E+00  0.4976E+00  0.3745E+02  0.3745E+02
     38.210  0.3902E+00  0.3903E+00  0.3757E+02  0.3757E+02
     38.509  0.5595E+00  0.5597E+00  0.3774E+02  0.3774E+02
     38.808  0.9881E+00  0.9846E+00  0.3803E+02  0.3803E+02
     39.107  0.3745E+00  0.3778E+00  0.3815E+02  0.3815E+02
     39.406  0.1187E+01  0.1191E+01  0.3850E+02  0.3850E+02
     39.705  0.1448E+01  0.1448E+01  0.3893E+02  0.3894E+02
     40.005  0.1069E+01  0.1076E+01  0.3925E+02  0.3926E+02
     40.304  0.1376E+01  0.1365E+01  0.3967E+02  0.3967E+02
     40.603  0.2042E+01  0.2044E+01  0.4028E+02  0.4028E+02
     40.902  0.1108E+01  0.1106E+01  0.4061E+02  0.4061E+02
     41.201  0.1458E+01  0.1460E+01  0.4104E+02  0.4104E+02
     41.500  0.1276E+01  0.1284E+01  0.4143E+02  0.4143E+02
     41.800  0.9557E+00  0.9486E+00  0.4171E+02  0.4171E+02
     42.099  0.5819E+00  0.5761E+00  0.4189E+02  0.4188E+02
     42.398  0.6347E+00  0.6498E+00  0.4208E+02  0.4208E+02
     42.697  0.3177E+00  0.3263E+00  0.4217E+02  0.4218E+02
     42.996  0.1653E+01  0.1634E+01  0.4267E+02  0.4267E+02
     43.295  0.1827E+01  0.1834E+01  0.4321E+02  0.4321E+02
     43.595  0.1205E+01  0.1189E+01  0.4357E+02  0.4357E+02
     43.894  0.7223E+00  0.6512E+00  0.4379E+02  0.4377E+02
     44.193  0.1123E+01  0.1203E+01  0.4413E+02  0.4413E+02
     44.492  0.9411E+00  0.9557E+00  0.4441E+02  0.4441E+02
     44.791  0.9014E-01  0.7110E-01  0.4443E+02  0.4443E+02
     45.090  0.2430E+00  0.2439E+00  0.4451E+02  0.4451E+02
     45.390  0.1465E+01  0.1464E+01  0.4494E+02  0.4494E+02
     45.689  0.4699E+00  0.5320E+00  0.4509E+02  0.4510E+02
     45.988  0.4679E+00  0.3962E+00  0.4522E+02  0.4522E+02
     46.287  0.2195E+01  0.2317E+01  0.4588E+02  0.4591E+02
     46.586  0.1895E+01  0.1788E+01  0.4645E+02  0.4645E+02
     46.885  0.3543E+00  0.5448E+00  0.4655E+02  0.4661E+02
     47.185  0.8226E+00  0.6562E+00  0.4680E+02  0.4681E+02
     47.484  0.1600E+01  0.1237E+01  0.4728E+02  0.4718E+02
     47.783  0.1628E+01  0.1729E+01  0.4777E+02  0.4770E+02
     48.082  0.5613E+00  0.1093E+01  0.4793E+02  0.4802E+02
     48.381  0.1165E+01  0.1278E+01  0.4828E+02  0.4840E+02
     48.680  0.1299E+01  0.8899E+00  0.4867E+02  0.4867E+02
     48.979  0.1234E+01  0.1418E+01  0.4904E+02  0.4910E+02
     49.279  0.8534E+00  0.6064E+00  0.4930E+02  0.4928E+02
     49.578  0.6182E+00  0.5624E+00  0.4948E+02  0.4945E+02
     49.877  0.1491E+01  0.1847E+01  0.4993E+02  0.5000E+02
     50.176  0.1334E+01  0.1407E+01  0.5033E+02  0.5042E+02
     50.475  0.1221E+01  0.1200E+01  0.5069E+02  0.5078E+02
     50.774  0.5899E+00  0.6808E+00  0.5087E+02  0.5098E+02
     51.074  0.6633E+00  0.3264E+00  0.5107E+02  0.5108E+02
     51.373  0.5366E+00  0.7791E+00  0.5123E+02  0.5131E+02
     51.672  0.1992E+00  0.5340E+00  0.5129E+02  0.5147E+02
     51.971  0.1442E+01  0.1329E+01  0.5172E+02  0.5187E+02
     52.270  0.1034E+01  0.3705E-01  0.5203E+02  0.5188E+02
     52.569  0.2260E-02  0.7383E+00  0.5203E+02  0.5210E+02
     52.869  0.6268E+00  0.8674E+00  0.5222E+02  0.5236E+02
     53.168  0.5172E+00  0.5338E+00  0.5237E+02  0.5252E+02
     53.467  0.7125E+00  0.2581E+00  0.5258E+02  0.5260E+02
     53.766  0.8265E+00  0.6944E+00  0.5283E+02  0.5281E+02
     54.065  0.7165E+00  0.3712E+00  0.5304E+02  0.5292E+02
     54.364  0.6713E+00  0.4183E+00  0.5325E+02  0.5304E+02
     54.664  0.9463E+00  0.1328E+01  0.5353E+02  0.5344E+02
     54.963  0.9977E-01  0.2733E+00  0.5356E+02  0.5352E+02
     55.262  0.2591E+00  0.4616E+00  0.5364E+02  0.5366E+02
     55.561  0.1141E+01  0.6444E+00  0.5398E+02  0.5385E+02
     55.860  0.1410E-01  0.3261E-01  0.5398E+02  0.5386E+02
     56.159  0.6137E-01  0.4006E+00  0.5400E+02  0.5398E+02
     56.458  0.0000E+00  0.3222E-02  0.5400E+02  0.5398E+02
     56.758  0.0000E+00  0.5868E-01  0.5400E+02  0.5400E+02
     57.057  0.0000E+00  0.0000E+00  0.5400E+02  0.5400E+02
     57.356  0.0000E+00  0.0000E+00  0.5400E+02  0.5400E+02
     57.655  0.0000E+00  0.0000E+00  0.5400E+02  0.5400E+02
     57.954  0.0000E+00  0.0000E+00  0.5400E+02  0.5400E+02
     58.253  0.0000E+00  0.0000E+00  0.5400E+02  0.5400E+02
     58.553  0.0000E+00  0.0000E+00  0.5400E+02  0.5400E+02
     58.852  0.0000E+00  0.0000E+00  0.5400E+02  0.5400E+02
     59.151  0.0000E+00  0.0000E+00  0.5400E+02  0.5400E+02
     59.450  0.0000E+00  0.0000E+00  0.5400E+02  0.5400E+02
     59.749  0.0000E+00  0.0000E+00  0.5400E+02  0.5400E+02
     60.048  0.0000E+00  0.0000E+00  0.5400E+02  0.5400E+02
     60.348  0.0000E+00  0.0000E+00  0.5400E+02  0.5400E+02
     60.647  0.0000E+00  0.0000E+00  0.5400E+02  0.5400E+02
     60.946  0.0000E+00  0.0000E+00  0.5400E+02  0.5400E+02
     61.245  0.0000E+00  0.0000E+00  0.5400E+02  0.5400E+02
     61.544  0.0000E+00  0.0000E+00  0.5400E+02  0.5400E+02
     61.843  0.0000E+00  0.0000E+00  0.5400E+02  0.5400E+02
     62.143  0.0000E+00  0.0000E+00  0.5400E+02  0.5400E+02
     62.442  0.0000E+00  0.0000E+00  0.5400E+02  0.5400E+02
     62.44169508    -27.30648858  301      5.07764769      1.00000000
    -27.306  0.0000E+00  0.0000E+00  0.0000E+00  0.0000E+00  0.0000E+00  0.0000E+00  0.0000E+00  0.0000E+00  0.0000E+00  0.0000E+00  0.0000E+00  0.0000E+00  0.0000E+00  0.0000E+00  0.0000E+00  0.0000E+00  0.0000E+00  0.0000E+00
    -27.007  0.0000E+00  0.0000E+00  0.0000E+00  0.0000E+00  0.0000E+00  0.0000E+00  0.0000E+00  0.0000E+00  0.0000E+00  0.0000E+00  0.0000E+00  0.0000E+00  0.0000E+00  0.0000E+00  0.0000E+00  0.0000E+00  0.0000E+00  0.0000E+00
    -26.708  0.0000E+00  0.0000E+00  0.0000E+00  0.0000E+00  0.0000E+00  0.0000E+00  0.0000E+00  0.0000E+00  0.0000E+00  0.0000E+00  0.0000E+00  0.0000E+00  0.0000E+00  0.0000E+00  0.0000E+00  0.0000E+00  0.0000E+00  0.0000E+00
    -26.409  0.0000E+00  0.0000E+00  0.0000E+00  0.0000E+00  0.0000E+00  0.0000E+00  0.0000E+00  0.0000E+00  0.0000E+00  0.0000E+00  0.0000E+00  0.0000E+00  0.0000E+00  0.0000E+00  0.0000E+00  0.0000E+00  0.0000E+00  0.0000E+00
    -26.110  0.0000E+00  0.0000E+00  0.0000E+00  0.0000E+00  0.0000E+00  0.0000E+00  0.0000E+00  0.0000E+00  0.0000E+00  0.0000E+00  0.0000E+00  0.0000E+00  0.0000E+00  0.0000E+00  0.0000E+00  0.0000E+00  0.0000E+00  0.0000E+00
    -25.811  0.0000E+00  0.0000E+00  0.0000E+00  0.0000E+00  0.0000E+00  0.0000E+00  0.0000E+00  0.0000E+00  0.0000E+00  0.0000E+00  0.0000E+00  0.0000E+00  0.0000E+00  0.0000E+00  0.0000E+00  0.0000E+00  0.0000E+00  0.0000E+00
    -25.512  0.0000E+00  0.0000E+00  0.0000E+00  0.0000E+00  0.0000E+00  0.0000E+00  0.0000E+00  0.0000E+00  0.0000E+00  0.0000E+00  0.0000E+00  0.0000E+00  0.0000E+00  0.0000E+00  0.0000E+00  0.0000E+00  0.0000E+00  0.0000E+00
    -25.212  0.0000E+00  0.0000E+00  0.0000E+00  0.0000E+00  0.0000E+00  0.0000E+00  0.0000E+00  0.0000E+00  0.0000E+00  0.0000E+00  0.0000E+00  0.0000E+00  0.0000E+00  0.0000E+00  0.0000E+00  0.0000E+00  0.0000E+00  0.0000E+00
    -24.913  0.0000E+00  0.0000E+00  0.0000E+00  0.0000E+00  0.0000E+00  0.0000E+00  0.0000E+00  0.0000E+00  0.0000E+00  0.0000E+00  0.0000E+00  0.0000E+00  0.0000E+00  0.0000E+00  0.0000E+00  0.0000E+00  0.0000E+00  0.0000E+00
    -24.614  0.0000E+00  0.0000E+00  0.0000E+00  0.0000E+00  0.0000E+00  0.0000E+00  0.0000E+00  0.0000E+00  0.0000E+00  0.0000E+00  0.0000E+00  0.0000E+00  0.0000E+00  0.0000E+00  0.0000E+00  0.0000E+00  0.0000E+00  0.0000E+00
    -24.315  0.0000E+00  0.0000E+00  0.0000E+00  0.0000E+00  0.0000E+00  0.0000E+00  0.0000E+00  0.0000E+00  0.0000E+00  0.0000E+00  0.0000E+00  0.0000E+00  0.0000E+00  0.0000E+00  0.0000E+00  0.0000E+00  0.0000E+00  0.0000E+00
    -24.016  0.0000E+00  0.0000E+00  0.0000E+00  0.0000E+00  0.0000E+00  0.0000E+00  0.0000E+00  0.0000E+00  0.0000E+00  0.0000E+00  0.0000E+00  0.0000E+00  0.0000E+00  0.0000E+00  0.0000E+00  0.0000E+00  0.0000E+00  0.0000E+00
    -23.717  0.0000E+00  0.0000E+00  0.0000E+00  0.0000E+00  0.0000E+00  0.0000E+00  0.0000E+00  0.0000E+00  0.0000E+00  0.0000E+00  0.0000E+00  0.0000E+00  0.0000E+00  0.0000E+00  0.0000E+00  0.0000E+00  0.0000E+00  0.0000E+00
    -23.417  0.5338E-13  0.5346E-13  0.2792E-11  0.2793E-11  0.1924E-11  0.1924E-11  0.2452E-11  0.2452E-11  0.4496E-08  0.4497E-08  0.5332E-08  0.5333E-08  0.6852E-09  0.6852E-09  0.5803E-08  0.5804E-08  0.1660E-09  0.1660E-09
    -23.118  0.8320E-03  0.8320E-03  0.8936E-03  0.8936E-03  0.4911E-03  0.4911E-03  0.8089E-03  0.8088E-03  0.1205E+01  0.1205E+01  0.1429E+01  0.1429E+01  0.4533E+00  0.4533E+00  0.1484E+01  0.1484E+01  0.2980E+00  0.2980E+00
    -22.819  0.2645E-02  0.2645E-02  0.6766E-03  0.6767E-03  0.8199E-03  0.8200E-03  0.7146E-03  0.7146E-03  0.2047E+01  0.2047E+01  0.1785E+01  0.1785E+01  0.2849E+01  0.2849E+01  0.1717E+01  0.1717E+01  0.3016E+01  0.3016E+01
    -22.520  0.2448E-05  0.2446E-05  0.3821E-04  0.3821E-04  0.1737E-04  0.1737E-04  0.3261E-04  0.3261E-04  0.7048E-01  0.7048E-01  0.1103E+00  0.1103E+00  0.2341E-01  0.2341E-01  0.1232E+00  0.1232E+00  0.1248E-01  0.1248E-01
    -22.221  0.0000E+00  0.0000E+00  0.0000E+00  0.0000E+00  0.0000E+00  0.0000E+00  0.0000E+00  0.0000E+00  0.0000E+00  0.0000E+00  0.0000E+00  0.0000E+00  0.0000E+00  0.0000E+00  0.0000E+00  0.0000E+00  0.0000E+00  0.0000E+00
    -21.922  0.0000E+00  0.0000E+00  0.0000E+00  0.0000E+00  0.0000E+00  0.0000E+00  0.0000E+00  0.0000E+00  0.0000E+00  0.0000E+00  0.0000E+00  0.0000E+00  0.0000E+00  0.0000E+00  0.0000E+00  0.0000E+00  0.0000E+00  0.0000E+00
    -21.622  0.0000E+00  0.0000E+00  0.0000E+00  0.0000E+00  0.0000E+00  0.0000E+00  0.0000E+00  0.0000E+00  0.0000E+00  0.0000E+00  0.0000E+00  0.0000E+00  0.0000E+00  0.0000E+00  0.0000E+00  0.0000E+00  0.0000E+00  0.0000E+00
    -21.323  0.0000E+00  0.0000E+00  0.0000E+00  0.0000E+00  0.0000E+00  0.0000E+00  0.0000E+00  0.0000E+00  0.0000E+00  0.0000E+00  0.0000E+00  0.0000E+00  0.0000E+00  0.0000E+00  0.0000E+00  0.0000E+00  0.0000E+00  0.0000E+00
    -21.024  0.0000E+00  0.0000E+00  0.0000E+00  0.0000E+00  0.0000E+00  0.0000E+00  0.0000E+00  0.0000E+00  0.0000E+00  0.0000E+00  0.0000E+00  0.0000E+00  0.0000E+00  0.0000E+00  0.0000E+00  0.0000E+00  0.0000E+00  0.0000E+00
    -20.725  0.0000E+00  0.0000E+00  0.0000E+00  0.0000E+00  0.0000E+00  0.0000E+00  0.0000E+00  0.0000E+00  0.0000E+00  0.0000E+00  0.0000E+00  0.0000E+00  0.0000E+00  0.0000E+00  0.0000E+00  0.0000E+00  0.0000E+00  0.0000E+00
    -20.426  0.0000E+00  0.0000E+00  0.0000E+00  0.0000E+00  0.0000E+00  0.0000E+00  0.0000E+00  0.0000E+00  0.0000E+00  0.0000E+00  0.0000E+00  0.0000E+00  0.0000E+00  0.0000E+00  0.0000E+00  0.0000E+00  0.0000E+00  0.0000E+00
    -20.127  0.0000E+00  0.0000E+00  0.0000E+00  0.0000E+00  0.0000E+00  0.0000E+00  0.0000E+00  0.0000E+00  0.0000E+00  0.0000E+00  0.0000E+00  0.0000E+00  0.0000E+00  0.0000E+00  0.0000E+00  0.0000E+00  0.0000E+00  0.0000E+00
    -19.827  0.0000E+00  0.0000E+00  0.0000E+00  0.0000E+00  0.0000E+00  0.0000E+00  0.0000E+00  0.0000E+00  0.0000E+00  0.0000E+00  0.0000E+00  0.0000E+00  0.0000E+00  0.0000E+00  0.0000E+00  0.0000E+00  0.0000E+00  0.0000E+00
    -19.528  0.0000E+00  0.0000E+00  0.0000E+00  0.0000E+00  0.0000E+00  0.0000E+00  0.0000E+00  0.0000E+00  0.0000E+00  0.0000E+00  0.0000E+00  0.0000E+00  0.0000E+00  0.0000E+00  0.0000E+00  0.0000E+00  0.0000E+00  0.0000E+00
    -19.229  0.0000E+00  0.0000E+00  0.0000E+00  0.0000E+00  0.0000E+00  0.0000E+00  0.0000E+00  0.0000E+00  0.0000E+00  0.0000E+00  0.0000E+00  0.0000E+00  0.0000E+00  0.0000E+00  0.0000E+00  0.0000E+00  0.0000E+00  0.0000E+00
    -18.930  0.0000E+00  0.0000E+00  0.0000E+00  0.0000E+00  0.0000E+00  0.0000E+00  0.0000E+00  0.0000E+00  0.0000E+00  0.0000E+00  0.0000E+00  0.0000E+00  0.0000E+00  0.0000E+00  0.0000E+00  0.0000E+00  0.0000E+00  0.0000E+00
    -18.631  0.0000E+00  0.0000E+00  0.0000E+00  0.0000E+00  0.0000E+00  0.0000E+00  0.0000E+00  0.0000E+00  0.0000E+00  0.0000E+00  0.0000E+00  0.0000E+00  0.0000E+00  0.0000E+00  0.0000E+00  0.0000E+00  0.0000E+00  0.0000E+00
    -18.332  0.0000E+00  0.0000E+00  0.0000E+00  0.0000E+00  0.0000E+00  0.0000E+00  0.0000E+00  0.0000E+00  0.0000E+00  0.0000E+00  0.0000E+00  0.0000E+00  0.0000E+00  0.0000E+00  0.0000E+00  0.0000E+00  0.0000E+00  0.0000E+00
    -18.033  0.0000E+00  0.0000E+00  0.0000E+00  0.0000E+00  0.0000E+00  0.0000E+00  0.0000E+00  0.0000E+00  0.0000E+00  0.0000E+00  0.0000E+00  0.0000E+00  0.0000E+00  0.0000E+00  0.0000E+00  0.0000E+00  0.0000E+00  0.0000E+00
    -17.733  0.0000E+00  0.0000E+00  0.0000E+00  0.0000E+00  0.0000E+00  0.0000E+00  0.0000E+00  0.0000E+00  0.0000E+00  0.0000E+00  0.0000E+00  0.0000E+00  0.0000E+00  0.0000E+00  0.0000E+00  0.0000E+00  0.0000E+00  0.0000E+00
    -17.434  0.0000E+00  0.0000E+00  0.0000E+00  0.0000E+00  0.0000E+00  0.0000E+00  0.0000E+00  0.0000E+00  0.0000E+00  0.0000E+00  0.0000E+00  0.0000E+00  0.0000E+00  0.0000E+00  0.0000E+00  0.0000E+00  0.0000E+00  0.0000E+00
    -17.135  0.0000E+00  0.0000E+00  0.0000E+00  0.0000E+00  0.0000E+00  0.0000E+00  0.0000E+00  0.0000E+00  0.0000E+00  0.0000E+00  0.0000E+00  0.0000E+00  0.0000E+00  0.0000E+00  0.0000E+00  0.0000E+00  0.0000E+00  0.0000E+00
    -16.836  0.0000E+00  0.0000E+00  0.0000E+00  0.0000E+00  0.0000E+00  0.0000E+00  0.0000E+00  0.0000E+00  0.0000E+00  0.0000E+00  0.0000E+00  0.0000E+00  0.0000E+00  0.0000E+00  0.0000E+00  0.0000E+00  0.0000E+00  0.0000E+00
    -16.537  0.0000E+00  0.0000E+00  0.0000E+00  0.0000E+00  0.0000E+00  0.0000E+00  0.0000E+00  0.0000E+00  0.0000E+00  0.0000E+00  0.0000E+00  0.0000E+00  0.0000E+00  0.0000E+00  0.0000E+00  0.0000E+00  0.0000E+00  0.0000E+00
    -16.238  0.0000E+00  0.0000E+00  0.0000E+00  0.0000E+00  0.0000E+00  0.0000E+00  0.0000E+00  0.0000E+00  0.0000E+00  0.0000E+00  0.0000E+00  0.0000E+00  0.0000E+00  0.0000E+00  0.0000E+00  0.0000E+00  0.0000E+00  0.0000E+00
    -15.938  0.0000E+00  0.0000E+00  0.0000E+00  0.0000E+00  0.0000E+00  0.0000E+00  0.0000E+00  0.0000E+00  0.0000E+00  0.0000E+00  0.0000E+00  0.0000E+00  0.0000E+00  0.0000E+00  0.0000E+00  0.0000E+00  0.0000E+00  0.0000E+00
    -15.639  0.0000E+00  0.0000E+00  0.0000E+00  0.0000E+00  0.0000E+00  0.0000E+00  0.0000E+00  0.0000E+00  0.0000E+00  0.0000E+00  0.0000E+00  0.0000E+00  0.0000E+00  0.0000E+00  0.0000E+00  0.0000E+00  0.0000E+00  0.0000E+00
    -15.340  0.0000E+00  0.0000E+00  0.0000E+00  0.0000E+00  0.0000E+00  0.0000E+00  0.0000E+00  0.0000E+00  0.0000E+00  0.0000E+00  0.0000E+00  0.0000E+00  0.0000E+00  0.0000E+00  0.0000E+00  0.0000E+00  0.0000E+00  0.0000E+00
    -15.041  0.0000E+00  0.0000E+00  0.0000E+00  0.0000E+00  0.0000E+00  0.0000E+00  0.0000E+00  0.0000E+00  0.0000E+00  0.0000E+00  0.0000E+00  0.0000E+00  0.0000E+00  0.0000E+00  0.0000E+00  0.0000E+00  0.0000E+00  0.0000E+00
    -14.742  0.0000E+00  0.0000E+00  0.0000E+00  0.0000E+00  0.0000E+00  0.0000E+00  0.0000E+00  0.0000E+00  0.0000E+00  0.0000E+00  0.0000E+00  0.0000E+00  0.0000E+00  0.0000E+00  0.0000E+00  0.0000E+00  0.0000E+00  0.0000E+00
    -14.443  0.0000E+00  0.0000E+00  0.0000E+00  0.0000E+00  0.0000E+00  0.0000E+00  0.0000E+00  0.0000E+00  0.0000E+00  0.0000E+00  0.0000E+00  0.0000E+00  0.0000E+00  0.0000E+00  0.0000E+00  0.0000E+00  0.0000E+00  0.0000E+00
    -14.143  0.0000E+00  0.0000E+00  0.0000E+00  0.0000E+00  0.0000E+00  0.0000E+00  0.0000E+00  0.0000E+00  0.0000E+00  0.0000E+00  0.0000E+00  0.0000E+00  0.0000E+00  0.0000E+00  0.0000E+00  0.0000E+00  0.0000E+00  0.0000E+00
    -13.844  0.0000E+00  0.0000E+00  0.0000E+00  0.0000E+00  0.0000E+00  0.0000E+00  0.0000E+00  0.0000E+00  0.0000E+00  0.0000E+00  0.0000E+00  0.0000E+00  0.0000E+00  0.0000E+00  0.0000E+00  0.0000E+00  0.0000E+00  0.0000E+00
    -13.545  0.0000E+00  0.0000E+00  0.0000E+00  0.0000E+00  0.0000E+00  0.0000E+00  0.0000E+00  0.0000E+00  0.0000E+00  0.0000E+00  0.0000E+00  0.0000E+00  0.0000E+00  0.0000E+00  0.0000E+00  0.0000E+00  0.0000E+00  0.0000E+00
    -13.246  0.0000E+00  0.0000E+00  0.0000E+00  0.0000E+00  0.0000E+00  0.0000E+00  0.0000E+00  0.0000E+00  0.0000E+00  0.0000E+00  0.0000E+00  0.0000E+00  0.0000E+00  0.0000E+00  0.0000E+00  0.0000E+00  0.0000E+00  0.0000E+00
    -12.947  0.0000E+00  0.0000E+00  0.0000E+00  0.0000E+00  0.0000E+00  0.0000E+00  0.0000E+00  0.0000E+00  0.0000E+00  0.0000E+00  0.0000E+00  0.0000E+00  0.0000E+00  0.0000E+00  0.0000E+00  0.0000E+00  0.0000E+00  0.0000E+00
    -12.648  0.0000E+00  0.0000E+00  0.0000E+00  0.0000E+00  0.0000E+00  0.0000E+00  0.0000E+00  0.0000E+00  0.0000E+00  0.0000E+00  0.0000E+00  0.0000E+00  0.0000E+00  0.0000E+00  0.0000E+00  0.0000E+00  0.0000E+00  0.0000E+00
    -12.348  0.0000E+00  0.0000E+00  0.0000E+00  0.0000E+00  0.0000E+00  0.0000E+00  0.0000E+00  0.0000E+00  0.0000E+00  0.0000E+00  0.0000E+00  0.0000E+00  0.0000E+00  0.0000E+00  0.0000E+00  0.0000E+00  0.0000E+00  0.0000E+00