    2    2    1    2
  0.2234237E+02  0.3983132E-09  0.3983132E-09  0.3983132E-09  0.5000000E-15
  1.000000000000000E-004
  CAR 
 unknown system                          
     28    116     54
 
  0.0000000E+00  0.0000000E+00  0.0000000E+00  0.4629630E-02
    1      -23.172451    -23.172452   1.000000   1.000000
    2      -23.172450    -23.172450   1.000000   1.000000
    3      -23.172447    -23.172447   1.000000   1.000000
    4      -23.134867    -23.134866   1.000000   1.000000
    5      -23.134866    -23.134865   1.000000   1.000000
    6      -22.919088    -22.919089   1.000000   1.000000
    7      -22.919087    -22.919087   1.000000   1.000000
    8      -22.919083    -22.919083   1.000000   1.000000
    9      -22.901275    -22.901274   1.000000   1.000000
   10      -22.901274    -22.901273   1.000000   1.000000
   11       -9.368389     -9.368390   1.000000   1.000000
   12        4.797094      4.797099   1.000000   1.000000
   13        4.797147      4.797153   1.000000   1.000000
   14        4.797149      4.797154   1.000000   1.000000
   15        5.836166      5.836137   0.000000   0.000000
   16        8.044090      8.044084   0.000000   0.000000
   17        8.044108      8.044113   0.000000   0.000000
   18        8.044114      8.044114   0.000000   0.000000
   19       12.067282     12.067298   0.000000   0.000000
   20       15.223776     15.223784   0.000000   0.000000
   21       15.223776     15.223784   0.000000   0.000000
   22       16.555599     16.555616   0.000000   0.000000
   23       16.555630     16.555644   0.000000   0.000000
   24       16.555630     16.555644   0.000000   0.000000
   25       19.506431     19.506440   0.000000   0.000000
   26       31.884252     31.884228   0.000000   0.000000
   27       31.884268     31.884280   0.000000   0.000000
   28       31.884281     31.884281   0.000000   0.000000
   29       32.437632     32.437639   0.000000   0.000000
   30       32.437635     32.437643   0.000000   0.000000
   31       32.437636     32.437644   0.000000   0.000000
   32       32.984637     32.984649   0.000000   0.000000
   33       32.984637     32.984655   0.000000   0.000000
   34       32.984642     32.984667   0.000000   0.000000
   35       34.017913     34.017925   0.000000   0.000000
   36       34.017941     34.017958   0.000000   0.000000
   37       40.854369     40.851626   0.000000   0.000000
   38       45.945735     45.994097   0.000000   0.000000
   39       46.203654     46.159028   0.000000   0.000000
   40       46.244892     46.220450   0.000000   0.000000
   41       46.430188     46.416232   0.000000   0.000000
   42       46.509178     46.535668   0.000000   0.000000
   43       46.729911     46.759746   0.000000   0.000000
   44       47.036491     46.933207   0.000000   0.000000
   45       47.390598     47.312894   0.000000   0.000000
   46       47.543021     47.474288   0.000000   0.000000
   47       47.645950     47.645950   0.000000   0.000000
   48       47.792913     47.717457   0.000000   0.000000
   49       47.967723     47.922781   0.000000   0.000000
   50       48.208117     48.028833   0.000000   0.000000
   51       48.349718     48.331250   0.000000   0.000000
   52       48.649684     48.596379   0.000000   0.000000
   53       48.739741     48.822577   0.000000   0.000000
   54       48.994272     48.928342   0.000000   0.000000
 
  0.1666667E+00  0.0000000E+00  0.0000000E+00  0.3703704E-01
    1      -23.185099    -23.185100   1.000000   1.000000
    2      -23.185095    -23.185095   1.000000   1.000000
    3      -23.168432    -23.168433   1.000000   1.000000
    4      -23.116701    -23.116700   1.000000   1.000000
    5      -23.116700    -23.116699   1.000000   1.000000
    6      -22.934784    -22.934784   1.000000   1.000000
    7      -22.934783    -22.934783   1.000000   1.000000
    8      -22.923948    -22.923949   1.000000   1.000000
    9      -22.888732    -22.888732   1.000000   1.000000
   10      -22.888729    -22.888729   1.000000   1.000000
   11       -8.990447     -8.990449   1.000000   1.000000
   12        1.521874      1.521870   1.000000   1.000000
   13        4.240149      4.240153   1.000000   1.000000
   14        4.240191      4.240196   1.000000   1.000000
   15        6.541381      6.541369   0.000000   0.000000
   16        8.788544      8.788544   0.000000   0.000000
   17        8.788577      8.788576   0.000000   0.000000
   18        9.849516      9.849513   0.000000   0.000000
   19       13.559568     13.559581   0.000000   0.000000
   20       14.002700     14.002713   0.000000   0.000000
   21       14.002703     14.002714   0.000000   0.000000
   22       15.718919     15.718931   0.000000   0.000000
   23       19.142338     19.142358   0.000000   0.000000
   24       19.142355     19.142358   0.000000   0.000000
   25       21.872822     21.872832   0.000000   0.000000
   26       27.067404     27.067419   0.000000   0.000000
   27       27.067419     27.067420   0.000000   0.000000
   28       27.366962     27.366964   0.000000   0.000000
   29       32.420695     32.420700   0.000000   0.000000
   30       32.420730     32.420725   0.000000   0.000000
   31       32.733079     32.733087   0.000000   0.000000
   32       33.789940     33.789934   0.000000   0.000000
   33       33.789956     33.789941   0.000000   0.000000
   34       36.240093     36.240184   0.000000   0.000000
   35       39.397480     39.396892   0.000000   0.000000
   36       39.398243     39.400841   0.000000   0.000000
   37       39.407833     39.402400   0.000000   0.000000
   38       40.341870     40.340916   0.000000   0.000000
   39       40.343767     40.344413   0.000000   0.000000
   40       42.909763     42.907421   0.000000   0.000000
   41       43.083407     43.076391   0.000000   0.000000
   42       43.117328     43.093106   0.000000   0.000000
   43       43.810301     43.805841   0.000000   0.000000
   44       43.822845     43.871447   0.000000   0.000000
   45       43.859626     43.907642   0.000000   0.000000
   46       43.969125     43.987712   0.000000   0.000000
   47       46.205507     46.242956   0.000000   0.000000
   48       47.081825     47.144614   0.000000   0.000000
   49       47.147389     47.195461   0.000000   0.000000
   50       47.395532     47.528077   0.000000   0.000000
   51       49.197469     49.067824   0.000000   0.000000
   52       49.610198     49.351660   0.000000   0.000000
   53       50.969301     51.651995   0.000000   0.000000
   54       52.144414     52.821872   0.000000   0.000000
 
  0.3333333E+00  0.0000000E+00  0.0000000E+00  0.3703704E-01
    1      -23.196045    -23.196046   1.000000   1.000000
    2      -23.196040    -23.196040   1.000000   1.000000
    3      -23.159722    -23.159722   1.000000   1.000000
    4      -23.096890    -23.096889   1.000000   1.000000
    5      -23.096888    -23.096887   1.000000   1.000000
    6      -22.948384    -22.948383   1.000000   1.000000
    7      -22.948383    -22.948382   1.000000   1.000000
    8      -22.933807    -22.933808   1.000000   1.000000
    9      -22.879178    -22.879179   1.000000   1.000000
   10      -22.879172    -22.879172   1.000000   1.000000
   11       -7.937731     -7.937733   1.000000   1.000000
   12       -1.839483     -1.839485   1.000000   1.000000
   13        3.521574      3.521578   1.000000   1.000000
   14        3.521611      3.521616   1.000000   1.000000
   15        5.925561      5.925553   0.000000   0.000000
   16        9.341137      9.341140   0.000000   0.000000
   17        9.341183      9.341185   0.000000   0.000000
   18       12.881484     12.881487   0.000000   0.000000
   19       13.593927     13.593937   0.000000   0.000000
   20       14.718649     14.718659   0.000000   0.000000
   21       14.718649     14.718660   0.000000   0.000000
   22       18.538193     18.538195   0.000000   0.000000
   23       22.007922     22.007922   0.000000   0.000000
   24       22.007924     22.007937   0.000000   0.000000
   25       23.166292     23.166296   0.000000   0.000000
   26       23.291237     23.291247   0.000000   0.000000
   27       23.291238     23.291250   0.000000   0.000000
   28       26.211710     26.211721   0.000000   0.000000
   29       32.642384     32.642388   0.000000   0.000000
   30       33.366358     33.366359   0.000000   0.000000
   31       33.366388     33.366387   0.000000   0.000000
   32       33.486093     33.486100   0.000000   0.000000
   33       33.936740     33.936737   0.000000   0.000000
   34       33.936742     33.936755   0.000000   0.000000
   35       34.636506     34.636500   0.000000   0.000000
   36       34.636527     34.636515   0.000000   0.000000
   37       37.409214     37.409319   0.000000   0.000000
   38       39.055020     39.054780   0.000000   0.000000
   39       40.093974     40.093891   0.000000   0.000000
   40       40.096183     40.094376   0.000000   0.000000
   41       40.412259     40.412223   0.000000   0.000000
   42       40.412629     40.413196   0.000000   0.000000
   43       40.774597     40.777763   0.000000   0.000000
   44       42.284625     42.275974   0.000000   0.000000
   45       45.216167     45.232643   0.000000   0.000000
   46       46.230453     46.244037   0.000000   0.000000
   47       46.326202     46.326030   0.000000   0.000000
   48       47.133275     47.146191   0.000000   0.000000
   49       47.224293     47.192318   0.000000   0.000000
   50       48.345070     48.349316   0.000000   0.000000
   51       48.467852     48.401643   0.000000   0.000000
   52       49.047999     48.976612   0.000000   0.000000
   53       50.807433     50.208241   0.000000   0.000000
   54       54.660898     53.960279   0.000000   0.000000
 
  0.5000000E+00  0.0000000E+00  0.0000000E+00  0.1851852E-01
    1      -23.198767    -23.198768   1.000000   1.000000
    2      -23.198761    -23.198761   1.000000   1.000000
    3      -23.155085    -23.155085   1.000000   1.000000
    4      -23.091356    -23.091356   1.000000   1.000000
    5      -23.091354    -23.091353   1.000000   1.000000
    6      -22.951172    -22.951171   1.000000   1.000000
    7      -22.951170    -22.951168   1.000000   1.000000
    8      -22.938878    -22.938878   1.000000   1.000000
    9      -22.876968    -22.876970   1.000000   1.000000
   10      -22.876961    -22.876962   1.000000   1.000000
   11       -6.999973     -6.999977   1.000000   1.000000
   12       -3.578796     -3.578796   1.000000   1.000000
   13        3.251829      3.251833   1.000000   1.000000
   14        3.251864      3.251869   1.000000   1.000000
   15        5.679158      5.679149   0.000000   0.000000
   16        9.283112      9.283094   0.000000   0.000000
   17        9.283113      9.283138   0.000000   0.000000
   18       12.743714     12.743727   0.000000   0.000000
   19       16.507851     16.507859   0.000000   0.000000
   20       17.206254     17.206259   0.000000   0.000000
   21       17.206259     17.206267   0.000000   0.000000
   22       17.466702     17.466693   0.000000   0.000000
   23       18.398446     18.398455   0.000000   0.000000
   24       18.398452     18.398460   0.000000   0.000000
   25       24.931257     24.931262   0.000000   0.000000
   26       27.354985     27.354985   0.000000   0.000000
   27       27.854871     27.854864   0.000000   0.000000
   28       27.854887     27.854897   0.000000   0.000000
   29       28.525238     28.525253   0.000000   0.000000
   30       28.525241     28.525253   0.000000   0.000000
   31       31.423528     31.423538   0.000000   0.000000
   32       32.025225     32.025235   0.000000   0.000000
   33       34.016821     34.016828   0.000000   0.000000
   34       34.166072     34.166085   0.000000   0.000000
   35       34.166111     34.166094   0.000000   0.000000
   36       35.299084     35.299088   0.000000   0.000000
   37       35.299094     35.299158   0.000000   0.000000
   38       38.764265     38.764253   0.000000   0.000000
   39       38.764271     38.764745   0.000000   0.000000
   40       38.801980     38.802021   0.000000   0.000000
   41       38.801993     38.802490   0.000000   0.000000
   42       39.473736     39.473999   0.000000   0.000000
   43       39.583281     39.583073   0.000000   0.000000
   44       40.964403     40.967733   0.000000   0.000000
   45       44.846733     44.844014   0.000000   0.000000
   46       46.970989     46.977635   0.000000   0.000000
   47       46.987165     46.990837   0.000000   0.000000
   48       47.459747     47.477129   0.000000   0.000000
   49       47.486936     47.520510   0.000000   0.000000
   50       49.013697     49.037783   0.000000   0.000000
   51       53.903120     53.939706   0.000000   0.000000
   52       54.528387     54.449344   0.000000   0.000000
   53       55.036229     55.080199   0.000000   0.000000
   54       55.944360     56.515944   0.000000   0.000000
 
  0.1666667E+00  0.1666667E+00  0.0000000E+00  0.2777778E-01
    1      -23.182858    -23.182859   1.000000   1.000000
    2      -23.182856    -23.182856   1.000000   1.000000
    3      -23.182073    -23.182073   1.000000   1.000000
    4      -23.118611    -23.118610   1.000000   1.000000
    5      -23.095730    -23.095730   1.000000   1.000000
    6      -22.970341    -22.970341   1.000000   1.000000
    7      -22.916422    -22.916421   1.000000   1.000000
    8      -22.903970    -22.903971   1.000000   1.000000
    9      -22.903967    -22.903968   1.000000   1.000000
   10      -22.885198    -22.885198   1.000000   1.000000
   11       -8.860762     -8.860763   1.000000   1.000000
   12        1.588382      1.588373   1.000000   1.000000
   13        3.401782      3.401787   1.000000   1.000000
   14        3.401812      3.401817   1.000000   1.000000
   15        6.971670      6.971674   0.000000   0.000000
   16        8.456516      8.456503   0.000000   0.000000
   17       10.052431     10.052429   0.000000   0.000000
   18       10.052455     10.052456   0.000000   0.000000
   19       12.469701     12.469714   0.000000   0.000000
   20       14.188686     14.188698   0.000000   0.000000
   21       15.728483     15.728490   0.000000   0.000000
   22       17.531696     17.531710   0.000000   0.000000
   23       17.531715     17.531729   0.000000   0.000000
   24       18.412950     18.412961   0.000000   0.000000
   25       23.411940     23.411948   0.000000   0.000000
   26       26.698055     26.698060   0.000000   0.000000
   27       26.698088     26.698097   0.000000   0.000000
   28       27.717287     27.717293   0.000000   0.000000
   29       28.202683     28.202687   0.000000   0.000000
   30       32.700852     32.700857   0.000000   0.000000
   31       32.700884     32.700886   0.000000   0.000000
   32       33.435804     33.435851   0.000000   0.000000
   33       36.208414     36.208559   0.000000   0.000000
   34       38.799248     38.800234   0.000000   0.000000
   35       38.842268     38.843399   0.000000   0.000000
   36       38.842762     38.844272   0.000000   0.000000
   37       39.339404     39.340009   0.000000   0.000000
   38       39.341164     39.344411   0.000000   0.000000
   39       39.647637     39.648086   0.000000   0.000000
   40       40.033263     40.032003   0.000000   0.000000
   41       42.781463     42.771050   0.000000   0.000000
   42       43.551450     43.566759   0.000000   0.000000
   43       43.580041     43.583517   0.000000   0.000000
   44       44.373276     44.350583   0.000000   0.000000
   45       44.843998     44.866363   0.000000   0.000000
   46       44.910449     44.906982   0.000000   0.000000
   47       45.733769     45.702597   0.000000   0.000000
   48       46.105507     46.067799   0.000000   0.000000
   49       46.279293     46.209082   0.000000   0.000000
   50       49.378468     49.230862   0.000000   0.000000
   51       49.558478     49.448489   0.000000   0.000000
   52       49.841328     49.879894   0.000000   0.000000
   53       51.010608     50.605303   0.000000   0.000000
   54       52.021222     51.666070   0.000000   0.000000
 
  0.3333333E+00  0.1666667E+00  0.0000000E+00  0.1111111E+00
    1      -23.203921    -23.203922   1.000000   1.000000
    2      -23.193820    -23.193821   1.000000   1.000000
    3      -23.162056    -23.162056   1.000000   1.000000
    4      -23.097249    -23.097248   1.000000   1.000000
    5      -23.069270    -23.069269   1.000000   1.000000
    6      -22.996324    -22.996324   1.000000   1.000000
    7      -22.939255    -22.939254   1.000000   1.000000
    8      -22.916161    -22.916161   1.000000   1.000000
    9      -22.885656    -22.885657   1.000000   1.000000
   10      -22.870651    -22.870651   1.000000   1.000000
   11       -8.008291     -8.008293   1.000000   1.000000
   12       -1.030838     -1.030843   1.000000   1.000000
   13        2.353209      2.353212   1.000000   1.000000
   14        2.711614      2.711619   1.000000   1.000000
   15        7.188307      7.188310   0.000000   0.000000
   16        8.811687      8.811679   0.000000   0.000000
   17       10.477735     10.477745   0.000000   0.000000
   18       10.990931     10.990932   0.000000   0.000000
   19       14.429728     14.429729   0.000000   0.000000
   20       15.537339     15.537350   0.000000   0.000000
   21       16.104514     16.104523   0.000000   0.000000
   22       17.958648     17.958655   0.000000   0.000000
   23       20.500721     20.500731   0.000000   0.000000
   24       21.948013     21.948023   0.000000   0.000000
   25       22.121249     22.121259   0.000000   0.000000
   26       22.509859     22.509865   0.000000   0.000000
   27       26.893591     26.893594   0.000000   0.000000
   28       27.526181     27.526186   0.000000   0.000000
   29       27.985307     27.985315   0.000000   0.000000
   30       29.445968     29.445975   0.000000   0.000000
   31       32.390576     32.390579   0.000000   0.000000
   32       33.472102     33.472104   0.000000   0.000000
   33       35.446305     35.446308   0.000000   0.000000
   34       35.468230     35.468236   0.000000   0.000000
   35       35.860160     35.860194   0.000000   0.000000
   36       36.950235     36.950249   0.000000   0.000000
   37       38.320068     38.320549   0.000000   0.000000
   38       38.634176     38.634305   0.000000   0.000000
   39       40.051106     40.046664   0.000000   0.000000
   40       40.579096     40.580625   0.000000   0.000000
   41       41.041355     41.041590   0.000000   0.000000
   42       41.306046     41.299020   0.000000   0.000000
   43       42.073243     42.074509   0.000000   0.000000
   44       43.069452     43.068210   0.000000   0.000000
   45       44.345160     44.304160   0.000000   0.000000
   46       45.196766     45.273953   0.000000   0.000000
   47       46.406103     46.312154   0.000000   0.000000
   48       47.751305     47.783315   0.000000   0.000000
   49       48.024823     48.003303   0.000000   0.000000
   50       48.640822     48.299366   0.000000   0.000000
   51       49.753894     49.819759   0.000000   0.000000
   52       50.225211     50.200624   0.000000   0.000000
   53       51.019356     51.032610   0.000000   0.000000
   54       51.724033     51.748096   0.000000   0.000000
 
  0.5000000E+00  0.1666667E+00  0.0000000E+00  0.1111111E+00
    1      -23.215776    -23.215776   1.000000   1.000000
    2      -23.202371    -23.202372   1.000000   1.000000
    3      -23.137751    -23.137752   1.000000   1.000000
    4      -23.077450    -23.077449   1.000000   1.000000
    5      -23.068821    -23.068820   1.000000   1.000000
    6      -22.990650    -22.990650   1.000000   1.000000
    7      -22.962078    -22.962077   1.000000   1.000000
    8      -22.942908    -22.942908   1.000000   1.000000
    9      -22.872346    -22.872346   1.000000   1.000000
   10      -22.858500    -22.858501   1.000000   1.000000
   11       -6.805518     -6.805522   1.000000   1.000000
   12       -3.325922     -3.325924   1.000000   1.000000
   13        1.431850      1.431854   1.000000   1.000000
   14        2.630030      2.630034   1.000000   1.000000
   15        7.091229      7.091228   0.000000   0.000000
   16        9.394876      9.394877   0.000000   0.000000
   17       10.628879     10.628882   0.000000   0.000000
   18       12.154520     12.154524   0.000000   0.000000
   19       15.013797     15.013808   0.000000   0.000000
   20       17.006288     17.006294   0.000000   0.000000
   21       17.200017     17.200026   0.000000   0.000000
   22       18.093368     18.093365   0.000000   0.000000
   23       18.996522     18.996529   0.000000   0.000000
   24       22.632250     22.632257   0.000000   0.000000
   25       24.238236     24.238241   0.000000   0.000000
   26       25.012779     25.012787   0.000000   0.000000
   27       26.484725     26.484731   0.000000   0.000000
   28       27.332276     27.332285   0.000000   0.000000
   29       28.844930     28.844934   0.000000   0.000000
   30       29.727128     29.727134   0.000000   0.000000
   31       30.077842     30.077848   0.000000   0.000000
   32       31.988863     31.988872   0.000000   0.000000
   33       32.244844     32.244849   0.000000   0.000000
   34       33.459258     33.459275   0.000000   0.000000
   35       33.787783     33.787794   0.000000   0.000000
   36       34.355418     34.355420   0.000000   0.000000
   37       35.039475     35.039481   0.000000   0.000000
   38       37.188151     37.188134   0.000000   0.000000
   39       38.564508     38.564307   0.000000   0.000000
   40       39.266770     39.266226   0.000000   0.000000
   41       39.957070     39.956765   0.000000   0.000000
   42       40.976713     40.977220   0.000000   0.000000
   43       43.020859     43.018947   0.000000   0.000000
   44       43.882376     43.883918   0.000000   0.000000
   45       44.021991     44.018873   0.000000   0.000000
   46       45.678384     45.668995   0.000000   0.000000
   47       46.072775     46.069071   0.000000   0.000000
   48       48.791466     48.783317   0.000000   0.000000
   49       50.137804     50.001238   0.000000   0.000000
   50       51.299870     51.519745   0.000000   0.000000
   51       51.738757     51.754454   0.000000   0.000000
   52       52.155488     52.354970   0.000000   0.000000
   53       52.691477     52.636366   0.000000   0.000000
   54       55.392068     55.031693   0.000000   0.000000
 
 -0.3333333E+00  0.1666667E+00  0.0000000E+00  0.1111111E+00
    1      -23.212337    -23.212338   1.000000   1.000000
    2      -23.205615    -23.205616   1.000000   1.000000
    3      -23.133713    -23.133713   1.000000   1.000000
    4      -23.089704    -23.089703   1.000000   1.000000
    5      -23.069182    -23.069181   1.000000   1.000000
    6      -22.976379    -22.976379   1.000000   1.000000
    7      -22.960954    -22.960954   1.000000   1.000000
    8      -22.951226    -22.951225   1.000000   1.000000
    9      -22.866720    -22.866720   1.000000   1.000000
   10      -22.864167    -22.864168   1.000000   1.000000
   11       -7.186231     -7.186234   1.000000   1.000000
   12       -2.705156     -2.705160   1.000000   1.000000
   13        1.187016      1.187021   1.000000   1.000000
   14        3.172418      3.172422   1.000000   1.000000
   15        7.295837      7.295833   0.000000   0.000000
   16        9.608868      9.608873   0.000000   0.000000
   17       10.090756     10.090757   0.000000   0.000000
   18       12.596195     12.596195   0.000000   0.000000
   19       14.032468     14.032479   0.000000   0.000000
   20       14.971621     14.971628   0.000000   0.000000
   21       16.926796     16.926806   0.000000   0.000000
   22       19.007061     19.007061   0.000000   0.000000
   23       20.619856     20.619866   0.000000   0.000000
   24       22.545703     22.545707   0.000000   0.000000
   25       22.785368     22.785376   0.000000   0.000000
   26       24.241716     24.241725   0.000000   0.000000
   27       27.036926     27.036938   0.000000   0.000000
   28       28.589324     28.589329   0.000000   0.000000
   29       28.938966     28.938971   0.000000   0.000000
   30       29.760234     29.760237   0.000000   0.000000
   31       30.242444     30.242454   0.000000   0.000000
   32       30.427588     30.427597   0.000000   0.000000
   33       33.268824     33.268825   0.000000   0.000000
   34       33.882374     33.882378   0.000000   0.000000
   35       34.053693     34.053699   0.000000   0.000000
   36       34.388846     34.388849   0.000000   0.000000
   37       36.477740     36.477741   0.000000   0.000000
   38       38.022228     38.022219   0.000000   0.000000
   39       39.446621     39.446749   0.000000   0.000000
   40       40.058304     40.057876   0.000000   0.000000
   41       40.403533     40.403418   0.000000   0.000000
   42       40.786486     40.787224   0.000000   0.000000
   43       42.946329     42.948917   0.000000   0.000000
   44       43.119656     43.114577   0.000000   0.000000
   45       43.193159     43.192204   0.000000   0.000000
   46       45.979029     45.982812   0.000000   0.000000
   47       46.076428     46.056389   0.000000   0.000000
   48       47.350936     47.399335   0.000000   0.000000
   49       47.619234     47.618715   0.000000   0.000000
   50       49.722727     49.682824   0.000000   0.000000
   51       51.944591     51.923990   0.000000   0.000000
   52       53.168466     52.708717   0.000000   0.000000
   53       54.382690     54.618096   0.000000   0.000000
   54       55.368320     55.932127   0.000000   0.000000
 
 -0.1666667E+00  0.1666667E+00  0.0000000E+00  0.5555556E-01
    1      -23.199571    -23.199571   1.000000   1.000000
    2      -23.195114    -23.195114   1.000000   1.000000
    3      -23.156216    -23.156216   1.000000   1.000000
    4      -23.107250    -23.107248   1.000000   1.000000
    5      -23.088340    -23.088340   1.000000   1.000000
    6      -22.963442    -22.963441   1.000000   1.000000
    7      -22.948994    -22.948994   1.000000   1.000000
    8      -22.918672    -22.918671   1.000000   1.000000
    9      -22.887654    -22.887654   1.000000   1.000000
   10      -22.871938    -22.871938   1.000000   1.000000
   11       -8.375484     -8.375486   1.000000   1.000000
   12       -0.221795     -0.221801   1.000000   1.000000
   13        2.037593      2.037599   1.000000   1.000000
   14        4.043069      4.043073   1.000000   1.000000
   15        7.574702      7.574693   0.000000   0.000000
   16        9.159029      9.159027   0.000000   0.000000
   17        9.304623      9.304628   0.000000   0.000000
   18       10.832466     10.832467   0.000000   0.000000
   19       12.891222     12.891237   0.000000   0.000000
   20       15.232281     15.232290   0.000000   0.000000
   21       15.264196     15.264201   0.000000   0.000000
   22       17.684160     17.684166   0.000000   0.000000
   23       18.921120     18.921135   0.000000   0.000000
   24       21.923102     21.923109   0.000000   0.000000
   25       22.634489     22.634498   0.000000   0.000000
   26       24.760632     24.760640   0.000000   0.000000
   27       26.771201     26.771206   0.000000   0.000000
   28       27.469678     27.469678   0.000000   0.000000
   29       27.754139     27.754152   0.000000   0.000000
   30       29.514478     29.514480   0.000000   0.000000
   31       33.042008     33.042010   0.000000   0.000000
   32       35.003746     35.003745   0.000000   0.000000
   33       36.041699     36.041670   0.000000   0.000000
   34       36.269544     36.269520   0.000000   0.000000
   35       36.927580     36.927495   0.000000   0.000000
   36       36.951553     36.951596   0.000000   0.000000
   37       39.541518     39.542396   0.000000   0.000000
   38       39.968390     39.968627   0.000000   0.000000
   39       40.363326     40.369962   0.000000   0.000000
   40       40.640585     40.636399   0.000000   0.000000
   41       40.827902     40.822842   0.000000   0.000000
   42       41.752914     41.751057   0.000000   0.000000
   43       42.800422     42.804813   0.000000   0.000000
   44       42.810711     42.837143   0.000000   0.000000
   45       43.376424     43.381248   0.000000   0.000000
   46       43.412307     43.421730   0.000000   0.000000
   47       45.270148     45.243982   0.000000   0.000000
   48       45.449161     45.450314   0.000000   0.000000
   49       48.108006     48.039414   0.000000   0.000000
   50       48.365453     48.690900   0.000000   0.000000
   51       48.900325     50.036788   0.000000   0.000000
   52       50.177298     50.440729   0.000000   0.000000
   53       50.667753     51.186159   0.000000   0.000000
   54       53.200339     53.496376   0.000000   0.000000
 
  0.3333333E+00  0.3333333E+00  0.0000000E+00  0.2777778E-01
    1      -23.200696    -23.200697   1.000000   1.000000
    2      -23.200693    -23.200694   1.000000   1.000000
    3      -23.167655    -23.167655   1.000000   1.000000
    4      -23.074550    -23.074549   1.000000   1.000000
    5      -23.047018    -23.047018   1.000000   1.000000
    6      -23.026470    -23.026470   1.000000   1.000000
    7      -22.957795    -22.957794   1.000000   1.000000
    8      -22.903310    -22.903310   1.000000   1.000000
    9      -22.875753    -22.875754   1.000000   1.000000
   10      -22.875750    -22.875751   1.000000   1.000000
   11       -7.363518     -7.363520   1.000000   1.000000
   12       -1.893212     -1.893220   1.000000   1.000000
   13        1.920070      1.920076   1.000000   1.000000
   14        1.920098      1.920103   1.000000   1.000000
   15        5.968685      5.968691   0.000000   0.000000
   16        7.404503      7.404507   0.000000   0.000000
   17       13.261629     13.261627   0.000000   0.000000