<?xml version="1.0" encoding="ISO-8859-1"?>
<modeling>
 <generator>
  <i name="program" type="string">vasp </i>
  <i name="version" type="string">5.4.4.18Apr17-6-g9f103f2a35  </i>
  <i name="subversion" type="string">(build Sep 01 2023 15:42:28) complex            parallel </i>
  <i name="platform" type="string">LinuxIFC </i>
  <i name="date" type="string">2023 11 23 </i>
  <i name="time" type="string">00:50:06 </i>
 </generator>
 <incar>
  <i type="int" name="ISTART">     0</i>
  <i type="string" name="PREC">n</i>
  <i type="string" name="ALGO"> D</i>
  <i type="logical" name="LDIAG"> T  </i>
  <i type="int" name="ISPIN">     2</i>
  <i type="int" name="ICHARG">     2</i>
  <i name="ENCUT">    450.00000000</i>
  <i type="int" name="NBANDS">    54</i>
  <v name="MAGMOM">      0.00000000      0.00000000      0.00000000      0.00000000      0.00000000      0.00000000</v>
  <i name="TIME">      0.40000000</i>
  <i type="int" name="ISMEAR">     0</i>
  <i name="SIGMA">      0.05000000</i>
  <i type="int" name="LMAXMIX">     2</i>
  <i type="logical" name="LWAVE"> F  </i>
  <i type="logical" name="LCHARG"> F  </i>
  <i type="int" name="LORBIT">    11</i>
  <v type="int" name="KPOINT_BSE">    -1     0     0     0</v>
  <i type="logical" name="LHFCALC"> T  </i>
  <i type="string" name="GGA"> PE</i>
  <i name="HFSCREEN">      0.20000000</i>
  <i name="AEXX">      0.25000000</i>
 </incar>
 <structure name="primitive_cell" >
  <crystal>
   <varray name="basis" >
    <v>       0.00000000       2.81650000       2.81650000 </v>
    <v>       2.81650000       0.00000000       2.81650000 </v>
    <v>       2.81650000       2.81650000       0.00000000 </v>
   </varray>
   <i name="volume">     44.68474278 </i>
   <varray name="rec_basis" >
    <v>      -0.17752530       0.17752530       0.17752530 </v>
    <v>       0.17752530      -0.17752530       0.17752530 </v>
    <v>       0.17752530       0.17752530      -0.17752530 </v>
   </varray>
  </crystal>
  <varray name="positions" >
   <v>       0.00000000       0.00000000       0.00000000 </v>
   <v>       0.25000000       0.25000000       0.25000000 </v>
  </varray>
 </structure>
 <varray name="primitive_index" >
  <v type="int" >        1 </v>
  <v type="int" >        2 </v>
 </varray>
 <kpoints>
  <varray name="kpointlist" >
   <v>       0.00000000       0.00000000       0.00000000 </v>
   <v>       0.16666667       0.00000000       0.00000000 </v>
   <v>       0.33333333       0.00000000       0.00000000 </v>
   <v>       0.50000000       0.00000000       0.00000000 </v>
   <v>       0.16666667       0.16666667       0.00000000 </v>
   <v>       0.33333333       0.16666667       0.00000000 </v>
   <v>       0.50000000       0.16666667       0.00000000 </v>
   <v>      -0.33333333       0.16666667       0.00000000 </v>
   <v>      -0.16666667       0.16666667       0.00000000 </v>
   <v>       0.33333333       0.33333333       0.00000000 </v>
   <v>       0.50000000       0.33333333       0.00000000 </v>
   <v>      -0.33333333       0.33333333       0.00000000 </v>
   <v>       0.50000000       0.50000000       0.00000000 </v>
   <v>       0.50000000       0.33333333       0.16666667 </v>
   <v>      -0.33333333       0.33333333       0.16666667 </v>
   <v>      -0.33333333       0.50000000       0.16666667 </v>
   <v>       0.50000000       0.50000000       0.50000000 </v>
   <v>       0.48979592       0.48979592       0.48979592 </v>
   <v>       0.47959184       0.47959184       0.47959184 </v>
   <v>       0.46938776       0.46938776       0.46938776 </v>
   <v>       0.45918367       0.45918367       0.45918367 </v>
   <v>       0.44897959       0.44897959       0.44897959 </v>
   <v>       0.43877551       0.43877551       0.43877551 </v>
   <v>       0.42857143       0.42857143       0.42857143 </v>
   <v>       0.41836735       0.41836735       0.41836735 </v>
   <v>       0.40816327       0.40816327       0.40816327 </v>
   <v>       0.39795918       0.39795918       0.39795918 </v>
   <v>       0.38775510       0.38775510       0.38775510 </v>
   <v>       0.37755102       0.37755102       0.37755102 </v>
   <v>       0.36734694       0.36734694       0.36734694 </v>
   <v>       0.35714286       0.35714286       0.35714286 </v>
   <v>       0.34693878       0.34693878       0.34693878 </v>
   <v>       0.33673469       0.33673469       0.33673469 </v>
   <v>       0.32653061       0.32653061       0.32653061 </v>
   <v>       0.31632653       0.31632653       0.31632653 </v>
   <v>       0.30612245       0.30612245       0.30612245 </v>
   <v>       0.29591837       0.29591837       0.29591837 </v>
   <v>       0.28571429       0.28571429       0.28571429 </v>
   <v>       0.27551020       0.27551020       0.27551020 </v>
   <v>       0.26530612       0.26530612       0.26530612 </v>
   <v>       0.25510204       0.25510204       0.25510204 </v>
   <v>       0.24489796       0.24489796       0.24489796 </v>
   <v>       0.23469388       0.23469388       0.23469388 </v>
   <v>       0.22448980       0.22448980       0.22448980 </v>
   <v>       0.21428571       0.21428571       0.21428571 </v>
   <v>       0.20408163       0.20408163       0.20408163 </v>
   <v>       0.19387755       0.19387755       0.19387755 </v>
   <v>       0.18367347       0.18367347       0.18367347 </v>
   <v>       0.17346939       0.17346939       0.17346939 </v>
   <v>       0.16326531       0.16326531       0.16326531 </v>
   <v>       0.15306122       0.15306122       0.15306122 </v>
   <v>       0.14285714       0.14285714       0.14285714 </v>
   <v>       0.13265306       0.13265306       0.13265306 </v>
   <v>       0.12244898       0.12244898       0.12244898 </v>
   <v>       0.11224490       0.11224490       0.11224490 </v>
   <v>       0.10204082       0.10204082       0.10204082 </v>
   <v>       0.09183673       0.09183673       0.09183673 </v>
   <v>       0.08163265       0.08163265       0.08163265 </v>
   <v>       0.07142857       0.07142857       0.07142857 </v>
   <v>       0.06122449       0.06122449       0.06122449 </v>
   <v>       0.05102041       0.05102041       0.05102041 </v>
   <v>       0.04081633       0.04081633       0.04081633 </v>
   <v>       0.03061224       0.03061224       0.03061224 </v>
   <v>       0.02040816       0.02040816       0.02040816 </v>
   <v>       0.01020408       0.01020408       0.01020408 </v>
   <v>       0.00000000       0.00000000       0.00000000 </v>
   <v>       0.00000000       0.00000000       0.00000000 </v>
   <v>       0.01020408       0.00000000       0.01020408 </v>
   <v>       0.02040816       0.00000000       0.02040816 </v>
   <v>       0.03061224       0.00000000       0.03061224 </v>
   <v>       0.04081633       0.00000000       0.04081633 </v>
   <v>       0.05102041       0.00000000       0.05102041 </v>
   <v>       0.06122449       0.00000000       0.06122449 </v>
   <v>       0.07142857       0.00000000       0.07142857 </v>
   <v>       0.08163265       0.00000000       0.08163265 </v>
   <v>       0.09183673       0.00000000       0.09183673 </v>
   <v>       0.10204082       0.00000000       0.10204082 </v>
   <v>       0.11224490       0.00000000       0.11224490 </v>
   <v>       0.12244898       0.00000000       0.12244898 </v>
   <v>       0.13265306       0.00000000       0.13265306 </v>
   <v>       0.14285714       0.00000000       0.14285714 </v>
   <v>       0.15306122       0.00000000       0.15306122 </v>
   <v>       0.16326531       0.00000000       0.16326531 </v>
   <v>       0.17346939       0.00000000       0.17346939 </v>
   <v>       0.18367347       0.00000000       0.18367347 </v>
   <v>       0.19387755       0.00000000       0.19387755 </v>
   <v>       0.20408163       0.00000000       0.20408163 </v>
   <v>       0.21428571       0.00000000       0.21428571 </v>
   <v>       0.22448980       0.00000000       0.22448980 </v>
   <v>       0.23469388       0.00000000       0.23469388 </v>
   <v>       0.24489796       0.00000000       0.24489796 </v>
   <v>       0.25510204       0.00000000       0.25510204 </v>
   <v>       0.26530612       0.00000000       0.26530612 </v>
   <v>       0.27551020       0.00000000       0.27551020 </v>
   <v>       0.28571429       0.00000000       0.28571429 </v>
   <v>       0.29591837       0.00000000       0.29591837 </v>
   <v>       0.30612245       0.00000000       0.30612245 </v>
   <v>       0.31632653       0.00000000       0.31632653 </v>
   <v>       0.32653061       0.00000000       0.32653061 </v>
   <v>       0.33673469       0.00000000       0.33673469 </v>
   <v>       0.34693878       0.00000000       0.34693878 </v>
   <v>       0.35714286       0.00000000       0.35714286 </v>
   <v>       0.36734694       0.00000000       0.36734694 </v>
   <v>       0.37755102       0.00000000       0.37755102 </v>
   <v>       0.38775510       0.00000000       0.38775510 </v>
   <v>       0.39795918       0.00000000       0.39795918 </v>
   <v>       0.40816327       0.00000000       0.40816327 </v>
   <v>       0.41836735       0.00000000       0.41836735 </v>
   <v>       0.42857143       0.00000000       0.42857143 </v>
   <v>       0.43877551       0.00000000       0.43877551 </v>
   <v>       0.44897959       0.00000000       0.44897959 </v>
   <v>       0.45918367       0.00000000       0.45918367 </v>
   <v>       0.46938776       0.00000000       0.46938776 </v>
   <v>       0.47959184       0.00000000       0.47959184 </v>
   <v>       0.48979592       0.00000000       0.48979592 </v>
   <v>       0.50000000       0.00000000       0.50000000 </v>
  </varray>
  <varray name="weights" >
   <v>       0.00462963 </v>
   <v>       0.03703704 </v>
   <v>       0.03703704 </v>
   <v>       0.01851852 </v>
   <v>       0.02777778 </v>
   <v>       0.11111111 </v>
   <v>       0.11111111 </v>
   <v>       0.11111111 </v>
   <v>       0.05555556 </v>
   <v>       0.02777778 </v>
   <v>       0.11111111 </v>
   <v>       0.05555556 </v>
   <v>       0.01388889 </v>
   <v>       0.11111111 </v>
   <v>       0.11111111 </v>
   <v>       0.05555556 </v>
   <v>       0.00000000 </v>
   <v>       0.00000000 </v>
   <v>       0.00000000 </v>
   <v>       0.00000000 </v>
   <v>       0.00000000 </v>
   <v>       0.00000000 </v>
   <v>       0.00000000 </v>
   <v>       0.00000000 </v>
   <v>       0.00000000 </v>
   <v>       0.00000000 </v>
   <v>       0.00000000 </v>
   <v>       0.00000000 </v>
   <v>       0.00000000 </v>
   <v>       0.00000000 </v>
   <v>       0.00000000 </v>
   <v>       0.00000000 </v>
   <v>       0.00000000 </v>
   <v>       0.00000000 </v>
   <v>       0.00000000 </v>
   <v>       0.00000000 </v>
   <v>       0.00000000 </v>
   <v>       0.00000000 </v>
   <v>       0.00000000 </v>
   <v>       0.00000000 </v>
   <v>       0.00000000 </v>
   <v>       0.00000000 </v>
   <v>       0.00000000 </v>
   <v>       0.00000000 </v>
   <v>       0.00000000 </v>
   <v>       0.00000000 </v>
   <v>       0.00000000 </v>
   <v>       0.00000000 </v>
   <v>       0.00000000 </v>
   <v>       0.00000000 </v>
   <v>       0.00000000 </v>
   <v>       0.00000000 </v>
   <v>       0.00000000 </v>
   <v>       0.00000000 </v>
   <v>       0.00000000 </v>
   <v>       0.00000000 </v>
   <v>       0.00000000 </v>
   <v>       0.00000000 </v>
   <v>       0.00000000 </v>
   <v>       0.00000000 </v>
   <v>       0.00000000 </v>
   <v>       0.00000000 </v>
   <v>       0.00000000 </v>
   <v>       0.00000000 </v>
   <v>       0.00000000 </v>
   <v>       0.00000000 </v>
   <v>       0.00000000 </v>
   <v>       0.00000000 </v>
   <v>       0.00000000 </v>
   <v>       0.00000000 </v>
   <v>       0.00000000 </v>
   <v>       0.00000000 </v>
   <v>       0.00000000 </v>
   <v>       0.00000000 </v>
   <v>       0.00000000 </v>
   <v>       0.00000000 </v>
   <v>       0.00000000 </v>
   <v>       0.00000000 </v>
   <v>       0.00000000 </v>
   <v>       0.00000000 </v>
   <v>       0.00000000 </v>
   <v>       0.00000000 </v>
   <v>       0.00000000 </v>
   <v>       0.00000000 </v>
   <v>       0.00000000 </v>
   <v>       0.00000000 </v>
   <v>       0.00000000 </v>
   <v>       0.00000000 </v>
   <v>       0.00000000 </v>
   <v>       0.00000000 </v>
   <v>       0.00000000 </v>
   <v>       0.00000000 </v>
   <v>       0.00000000 </v>
   <v>       0.00000000 </v>
   <v>       0.00000000 </v>
   <v>       0.00000000 </v>
   <v>       0.00000000 </v>
   <v>       0.00000000 </v>
   <v>       0.00000000 </v>
   <v>       0.00000000 </v>
   <v>       0.00000000 </v>
   <v>       0.00000000 </v>
   <v>       0.00000000 </v>
   <v>       0.00000000 </v>
   <v>       0.00000000 </v>
   <v>       0.00000000 </v>
   <v>       0.00000000 </v>
   <v>       0.00000000 </v>
   <v>       0.00000000 </v>
   <v>       0.00000000 </v>
   <v>       0.00000000 </v>
   <v>       0.00000000 </v>
   <v>       0.00000000 </v>
   <v>       0.00000000 </v>
   <v>       0.00000000 </v>
   <v>       0.00000000 </v>
  </varray>
 </kpoints>
 <parameters>
  <separator name="general" >
   <i type="string" name="SYSTEM">unknown system</i>
   <i type="logical" name="LCOMPAT"> F  </i>
  </separator>
  <separator name="electronic" >
   <i type="string" name="PREC">n</i>
   <i name="ENMAX">    450.00000000</i>
   <i name="ENAUG">    531.35600000</i>
   <i name="EDIFF">      0.00010000</i>
   <i type="int" name="IALGO">    53</i>
   <i type="int" name="IWAVPR">    10</i>
   <i type="int" name="NBANDS">    54</i>
   <i name="NELECT">     28.00000000</i>
   <i type="int" name="TURBO">     0</i>
   <i type="int" name="IRESTART">     0</i>
   <i type="int" name="NREBOOT">     0</i>
   <i type="int" name="NMIN">     0</i>
   <i name="EREF">      0.00000000</i>
   <separator name="electronic smearing" >
    <i type="int" name="ISMEAR">     0</i>
    <i name="SIGMA">      0.05000000</i>
    <i name="KSPACING">      0.50000000</i>
    <i type="logical" name="KGAMMA"> T  </i>
   </separator>
   <separator name="electronic projectors" >
    <i type="logical" name="LREAL"> F  </i>
    <v name="ROPT">      0.00000000</v>
    <i type="int" name="LMAXPAW">  -100</i>
    <i type="int" name="LMAXMIX">     2</i>
    <i type="logical" name="NLSPLINE"> F  </i>
   </separator>
   <separator name="electronic startup" >
    <i type="int" name="ISTART">     0</i>
    <i type="int" name="ICHARG">     2</i>
    <i type="int" name="INIWAV">     1</i>
   </separator>
   <separator name="electronic spin" >
    <i type="int" name="ISPIN">     2</i>
    <i type="logical" name="LNONCOLLINEAR"> F  </i>
    <v name="MAGMOM">      0.00000000      0.00000000</v>
    <i name="NUPDOWN">     -1.00000000</i>
    <i type="logical" name="LSORBIT"> F  </i>
    <v name="SAXIS">      0.00000000      0.00000000      1.00000000</v>
    <i type="logical" name="LSPIRAL"> F  </i>
    <v name="QSPIRAL">      0.00000000      0.00000000      0.00000000</v>
    <i type="logical" name="LZEROZ"> F  </i>
   </separator>
   <separator name="electronic exchange-correlation" >
    <i type="logical" name="LASPH"> F  </i>
    <i type="logical" name="LMETAGGA"> F  </i>
   </separator>
   <separator name="electronic convergence" >
    <i type="int" name="NELM">    60</i>
    <i type="int" name="NELMDL">    -5</i>
    <i type="int" name="NELMIN">     2</i>
    <i name="ENINI">    450.00000000</i>
    <separator name="electronic convergence detail" >
     <i type="logical" name="LDIAG"> T  </i>
     <i type="logical" name="LSUBROT"> F  </i>
     <i name="WEIMIN">      0.00000000</i>
     <i name="EBREAK">      0.00000046</i>
     <i name="DEPER">      0.30000000</i>
     <i type="int" name="NRMM">     4</i>
     <i name="TIME">      0.40000000</i>
    </separator>
   </separator>
   <separator name="electronic mixer" >
    <i name="AMIX">      0.40000000</i>
    <i name="BMIX">      1.00000000</i>
    <i name="AMIN">      0.10000000</i>
    <i name="AMIX_MAG">      1.60000000</i>
    <i name="BMIX_MAG">      1.00000000</i>
    <separator name="electronic mixer details" >
     <i type="int" name="IMIX">     4</i>
     <i type="logical" name="MIXFIRST"> F  </i>
     <i type="int" name="MAXMIX">   -45</i>
     <i name="WC">    100.00000000</i>
     <i type="int" name="INIMIX">     1</i>
     <i type="int" name="MIXPRE">     1</i>
     <i type="int" name="MREMOVE">     5</i>
    </separator>
   </separator>
   <separator name="electronic dipolcorrection" >
    <i type="logical" name="LDIPOL"> F  </i>
    <i type="logical" name="LMONO"> F  </i>
    <i type="int" name="IDIPOL">     0</i>
    <i name="EPSILON">      1.00000000</i>
    <v name="DIPOL">   -100.00000000   -100.00000000   -100.00000000</v>
    <i name="EFIELD">      0.00000000</i>
   </separator>
  </separator>
  <separator name="grids" >
   <i type="int" name="NGX">    24</i>
   <i type="int" name="NGY">    24</i>
   <i type="int" name="NGZ">    24</i>
   <i type="int" name="NGXF">    48</i>
   <i type="int" name="NGYF">    48</i>
   <i type="int" name="NGZF">    48</i>
   <i type="logical" name="ADDGRID"> F  </i>
  </separator>
  <separator name="ionic" >
   <i type="int" name="NSW">     0</i>
   <i type="int" name="IBRION">    -1</i>
   <i type="int" name="MDALGO">     0</i>
   <i type="int" name="ISIF">     0</i>
   <i name="PSTRESS">      0.00000000</i>
   <i name="EDIFFG">      0.00100000</i>
   <i type="int" name="NFREE">     0</i>
   <i name="POTIM">      0.50000000</i>
   <i name="SMASS">     -3.00000000</i>
   <i name="SCALEE">      1.00000000</i>
  </separator>
  <separator name="ionic md" >
   <i name="TEBEG">      0.00010000</i>
   <i name="TEEND">      0.00010000</i>
   <i type="int" name="NBLOCK">     1</i>
   <i type="int" name="KBLOCK">     1</i>
   <i type="int" name="NPACO">   256</i>
   <i name="APACO">     16.00000000</i>
  </separator>
  <separator name="symmetry" >
   <i type="int" name="ISYM">     3</i>
   <i name="SYMPREC">      0.00001000</i>
  </separator>
  <separator name="dos" >
   <i type="int" name="LORBIT">    11</i>
   <v name="RWIGS">     -1.00000000</v>
   <i type="int" name="NEDOS">   301</i>
   <i name="EMIN">     10.00000000</i>
   <i name="EMAX">    -10.00000000</i>
   <i name="EFERMI">      0.00000000</i>
  </separator>
  <separator name="writing" >
   <i type="int" name="NWRITE">     2</i>
   <i type="logical" name="LWAVE"> F  </i>
   <i type="logical" name="LDOWNSAMPLE"> F  </i>
   <i type="logical" name="LCHARG"> F  </i>
   <i type="logical" name="LPARD"> F  </i>
   <i type="logical" name="LVTOT"> F  </i>
   <i type="logical" name="LVHAR"> F  </i>
   <i type="logical" name="LELF"> F  </i>
   <i type="logical" name="LOPTICS"> F  </i>
   <v name="STM">      0.00000000      0.00000000      0.00000000      0.00000000      0.00000000      0.00000000      0.00000000</v>
  </separator>
  <separator name="performance" >
   <i type="int" name="NPAR">     3</i>
   <i type="int" name="NSIM">     4</i>
   <i type="int" name="NBLK">    -1</i>
   <i type="logical" name="LPLANE"> T  </i>
   <i type="logical" name="LSCALAPACK"> T  </i>
   <i type="logical" name="LSCAAWARE"> F  </i>
   <i type="logical" name="LSCALU"> F  </i>
   <i type="logical" name="LASYNC"> F  </i>
   <i type="logical" name="LORBITALREAL"> F  </i>
  </separator>
  <separator name="miscellaneous" >
   <i type="int" name="IDIOT">     3</i>
   <i type="int" name="ISPECIAL">     0</i>
   <i type="logical" name="LMUSIC"> F  </i>
   <v name="POMASS">     72.61000000</v>
   <v name="DARWINR">      0.00000000</v>
   <v name="DARWINV">      1.00000000</v>
   <i type="logical" name="LCORR"> T  </i>
  </separator>
  <i type="logical" name="GGA_COMPAT"> T  </i>
  <i type="logical" name="LBERRY"> F  </i>
  <i type="int" name="ICORELEVEL">     0</i>
  <i type="logical" name="LDAU"> F  </i>
  <i type="int" name="I_CONSTRAINED_M">     0</i>
  <separator name="electronic exchange-correlation" >
   <i type="string" name="GGA">PE</i>
   <i type="int" name="VOSKOWN">     0</i>
   <i type="logical" name="LHFCALC"> T  </i>
   <i type="string" name="PRECFOCK">normal</i>
   <i type="logical" name="LSYMGRAD"> F  </i>
   <i type="logical" name="LHFONE"> F  </i>
   <i type="logical" name="LRHFCALC"> F  </i>
   <i type="logical" name="LTHOMAS"> F  </i>
   <i type="logical" name="LMODELHF"> F  </i>
   <i name="ENCUT4O">     -1.00000000</i>
   <i type="int" name="EXXOEP">     0</i>
   <i type="int" name="FOURORBIT">     0</i>
   <i name="AEXX">      0.25000000</i>
   <i name="HFALPHA">     -1.00000000</i>
   <i name="MCALPHA">      0.00000000</i>
   <i name="ALDAX">      0.75000000</i>
   <i name="AGGAX">      0.75000000</i>
   <i name="ALDAC">      1.00000000</i>
   <i name="AGGAC">      1.00000000</i>
   <i type="int" name="NKREDX">     1</i>
   <i type="int" name="NKREDY">     1</i>
   <i type="int" name="NKREDZ">     1</i>
   <i type="logical" name="SHIFTRED"> F  </i>
   <i type="logical" name="ODDONLY"> F  </i>
   <i type="logical" name="EVENONLY"> F  </i>
   <i type="int" name="LMAXFOCK">     4</i>
   <i type="int" name="NMAXFOCKAE">     1</i>
   <i type="logical" name="LFOCKAEDFT"> F  </i>
   <i name="HFSCREEN">      0.20000000</i>
   <i name="HFSCREENC">      0.20000000</i>
   <i type="int" name="NBANDSGWLOW">     1</i>
  </separator>
  <separator name="vdW DFT" >
   <i type="logical" name="LUSE_VDW"> F  </i>
   <i name="Zab_VDW">     -0.84910000</i>
   <i name="PARAM1">      0.12340000</i>
   <i name="PARAM2">      1.00000000</i>
   <i name="PARAM3">      0.00000000</i>
  </separator>
  <separator name="model GW" >
   <i type="int" name="MODEL_GW">     0</i>
   <i name="MODEL_EPS0">     13.40542284</i>
   <i name="MODEL_ALPHA">      1.00000000</i>
  </separator>
  <separator name="linear response parameters" >
   <i type="logical" name="LEPSILON"> F  </i>
   <i type="logical" name="LRPA"> F  </i>
   <i type="logical" name="LNABLA"> F  </i>
   <i type="logical" name="LVEL"> F  </i>
   <i type="int" name="KINTER">     0</i>
   <i name="CSHIFT">      0.10000000</i>
   <i name="OMEGAMAX">     -1.00000000</i>
   <i name="DEG_THRESHOLD">      0.00200000</i>
   <i name="RTIME">     -0.10000000</i>
   <i name="WPLASMAI">      0.00000000</i>
   <v name="DFIELD">      0.00000000      0.00000000      0.00000000</v>
   <v name="WPLASMA">      0.00000000      0.00000000      0.00000000      0.00000000      0.00000000      0.00000000      0.00000000      0.00000000      0.00000000</v>
  </separator>
  <separator name="orbital magnetization" >
   <i type="logical" name="NUCIND"> F  </i>
   <v name="MAGPOS">      0.00000000      0.00000000      0.00000000</v>
   <i type="logical" name="LNICSALL"> T  </i>
   <i type="logical" name="ORBITALMAG"> F  </i>
   <i type="logical" name="LMAGBLOCH"> F  </i>
   <i type="logical" name="LCHIMAG"> F  </i>
   <i type="logical" name="LGAUGE"> T  </i>
   <i type="int" name="MAGATOM">     0</i>
   <v name="MAGDIPOL">      0.00000000      0.00000000      0.00000000</v>
   <v name="AVECCONST">      0.00000000      0.00000000      0.00000000</v>
  </separator>
  <separator name="response functions" >
   <i type="logical" name="LADDER"> F  </i>
   <i type="logical" name="LRPAFORCE"> F  </i>
   <i type="logical" name="LFXC"> F  </i>
   <i type="logical" name="LHARTREE"> T  </i>
   <i type="int" name="IBSE">     0</i>
   <v type="int" name="KPOINT">    -1     0     0     0</v>
   <i type="logical" name="LTCTE"> F  </i>
   <i type="logical" name="LTETE"> F  </i>
   <i type="logical" name="LTRIPLET"> F  </i>
   <i type="logical" name="LFXCEPS"> F  </i>
   <i type="logical" name="LFXHEG"> F  </i>
   <i type="int" name="NATURALO">     2</i>
   <i type="logical" name="L2ORDER"> F  </i>
   <i type="logical" name="LMP2LT"> F  </i>
   <i type="logical" name="LUSEW"> F  </i>
   <i name="ENCUTGW">     -2.00000000</i>
   <i name="ENCUTGWSOFT">     -2.00000000</i>
   <i name="ENCUTLF">     -1.00000000</i>
   <i type="int" name="LMAXMP2">    -1</i>
   <i name="SCISSOR">      0.00000000</i>
   <i type="int" name="NOMEGA">     0</i>
   <i type="int" name="NOMEGAR">     0</i>
   <i type="int" name="NBANDSGW">    -1</i>
   <i type="int" name="NBANDSO">    -1</i>
   <i type="int" name="NBANDSV">    -1</i>
   <i type="int" name="NELM">     1</i>
   <i type="int" name="NELMHF">     1</i>
   <i type="int" name="DIM">     3</i>
   <i type="int" name="ANTIRES">     0</i>
   <i name="OMEGAMAX">    -30.00000000</i>
   <i name="OMEGAMIN">    -30.00000000</i>
   <i name="OMEGATL">   -200.00000000</i>
   <i type="int" name="OMEGAGRID">   140</i>
   <i name="CSHIFT">     -0.10000000</i>
   <i type="logical" name="SELFENERGY"> F  </i>
   <i type="logical" name="LSPECTRAL"> F  </i>
   <i type="logical" name="LSPECTRALGW"> F  </i>
   <i type="logical" name="LSINGLES"> F  </i>
   <i type="logical" name="LFERMIGW"> F  </i>
   <i type="logical" name="ODDONLYGW"> F  </i>
   <i type="logical" name="EVENONLYGW"> F  </i>
   <i type="int" name="NKREDLFX">     1</i>
   <i type="int" name="NKREDLFY">     1</i>
   <i type="int" name="NKREDLFZ">     1</i>
   <i type="int" name="MAXMEM">  2800</i>
   <i type="int" name="TELESCOPE">     0</i>
   <i type="int" name="TAUPAR">     1</i>
   <i type="int" name="OMEGAPAR">    -1</i>
   <i name="LAMBDA">      1.00000000</i>
  </separator>
  <separator name="External order field" >
   <i name="OFIELD_KAPPA">      0.00000000</i>
   <v name="OFIELD_K">      0.00000000      0.00000000      0.00000000</v>
   <i name="OFIELD_Q6_NEAR">      0.00000000</i>
   <i name="OFIELD_Q6_FAR">      0.00000000</i>
   <i name="OFIELD_A">      0.00000000</i>
  </separator>
 </parameters>
 <atominfo>
  <atoms>       2 </atoms>
  <types>       1 </types>
  <array name="atoms" >
   <dimension dim="1">ion</dimension>
   <field type="string">element</field>
   <field type="int">atomtype</field>
   <set>
    <rc><c>Ge</c><c>   1</c></rc>
    <rc><c>Ge</c><c>   1</c></rc>
   </set>
  </array>
  <array name="atomtypes" >
   <dimension dim="1">type</dimension>
   <field type="int">atomspertype</field>
   <field type="string">element</field>
   <field>mass</field>
   <field>valence</field>
   <field type="string">pseudopotential</field>
   <set>
    <rc><c>   2</c><c>Ge</c><c>     72.61000000</c><c>     14.00000000</c><c>  PAW_PBE Ge_d 03Jul2007                </c></rc>
   </set>
  </array>
 </atominfo>
 <structure name="initialpos" >
  <crystal>
   <varray name="basis" >
    <v>       0.00000000       2.81650000       2.81650000 </v>
    <v>       2.81650000       0.00000000       2.81650000 </v>
    <v>       2.81650000       2.81650000       0.00000000 </v>
   </varray>
   <i name="volume">     44.68474278 </i>
   <varray name="rec_basis" >
    <v>      -0.17752530       0.17752530       0.17752530 </v>
    <v>       0.17752530      -0.17752530       0.17752530 </v>
    <v>       0.17752530       0.17752530      -0.17752530 </v>
   </varray>
  </crystal>
  <varray name="positions" >
   <v>       0.00000000       0.00000000       0.00000000 </v>
   <v>       0.25000000       0.25000000       0.25000000 </v>
  </varray>
 </structure>
 <calculation>
  <scstep>
   <time name="total">    1.36    1.52</time>
   <energy>
    <i name="alphaZ">    131.13230232 </i>
    <i name="ewald">  -2699.00129049 </i>
    <i name="hartreedc">  -1507.28522658 </i>
    <i name="XCdc">    111.42254344 </i>
    <i name="pawpsdc">   3707.07107620 </i>
    <i name="pawaedc">  -4533.30323240 </i>
    <i name="eentropy">     -0.00157133 </i>
    <i name="bandstr">    -81.35879463 </i>
    <i name="atom">   5189.13196876 </i>
    <i name="e_fr_energy">    317.80777529 </i>
    <i name="e_wo_entrp">    317.80934662 </i>
    <i name="e_0_energy">    317.80856096 </i>
   </energy>
  </scstep>
  <scstep>
   <time name="total">    0.80    0.80</time>
   <energy>
    <i name="e_fr_energy">    126.84789633 </i>
    <i name="e_wo_entrp">    126.84844310 </i>
    <i name="e_0_energy">    126.84816971 </i>
   </energy>
  </scstep>
  <scstep>
   <time name="total">    0.86    0.88</time>
   <energy>
    <i name="e_fr_energy">     73.67461565 </i>
    <i name="e_wo_entrp">     73.67490304 </i>
    <i name="e_0_energy">     73.67475935 </i>
   </energy>
  </scstep>
  <scstep>
   <time name="total">    0.86    0.91</time>
   <energy>
    <i name="e_fr_energy">     66.21968038 </i>
    <i name="e_wo_entrp">     66.21968701 </i>
    <i name="e_0_energy">     66.21968370 </i>
   </energy>
  </scstep>
  <scstep>
   <time name="total">    0.98    1.04</time>
   <energy>
    <i name="e_fr_energy">     65.49079100 </i>
    <i name="e_wo_entrp">     65.49079337 </i>
    <i name="e_0_energy">     65.49079218 </i>
   </energy>
  </scstep>
  <scstep>
   <time name="total">  518.85  527.71</time>
   <energy>
    <i name="e_fr_energy">    -10.38854417 </i>
    <i name="e_wo_entrp">    -10.38854417 </i>
    <i name="e_0_energy">    -10.38854417 </i>
   </energy>
  </scstep>
  <scstep>
   <time name="total">  520.01  528.26</time>
   <energy>
    <i name="e_fr_energy">    -10.54815715 </i>
    <i name="e_wo_entrp">    -10.54815715 </i>
    <i name="e_0_energy">    -10.54815715 </i>
   </energy>
  </scstep>
  <scstep>
   <time name="total">  519.99  528.26</time>
   <energy>
    <i name="e_fr_energy">    -10.62465363 </i>
    <i name="e_wo_entrp">    -10.62465363 </i>
    <i name="e_0_energy">    -10.62465363 </i>
   </energy>
  </scstep>
  <scstep>
   <time name="total">  519.56  527.94</time>
   <energy>
    <i name="e_fr_energy">    -10.66025243 </i>
    <i name="e_wo_entrp">    -10.66025243 </i>
    <i name="e_0_energy">    -10.66025243 </i>
   </energy>
  </scstep>
  <scstep>
   <time name="total">  520.58  528.78</time>
   <energy>
    <i name="e_fr_energy">    -10.67224270 </i>
    <i name="e_wo_entrp">    -10.67224270 </i>
    <i name="e_0_energy">    -10.67224270 </i>
   </energy>
  </scstep>
  <scstep>
   <time name="total">  519.92  528.10</time>
   <energy>
    <i name="e_fr_energy">    -10.67660824 </i>
    <i name="e_wo_entrp">    -10.67660824 </i>
    <i name="e_0_energy">    -10.67660824 </i>
   </energy>
  </scstep>
  <scstep>
   <time name="total">  519.71  527.88</time>
   <energy>
    <i name="e_fr_energy">    -10.67819782 </i>
    <i name="e_wo_entrp">    -10.67819782 </i>
    <i name="e_0_energy">    -10.67819782 </i>
   </energy>
  </scstep>
  <scstep>
   <time name="total">  519.71  528.47</time>
   <energy>
    <i name="e_fr_energy">    -10.67865949 </i>
    <i name="e_wo_entrp">    -10.67865949 </i>
    <i name="e_0_energy">    -10.67865949 </i>
   </energy>
  </scstep>
  <scstep>
   <time name="total">  519.93  528.08</time>
   <energy>
    <i name="e_fr_energy">    -10.67891806 </i>
    <i name="e_wo_entrp">    -10.67891806 </i>
    <i name="e_0_energy">    -10.67891806 </i>
   </energy>
  </scstep>
  <scstep>
   <time name="total">  519.81  528.20</time>
   <energy>
    <i name="e_fr_energy">    -10.67904332 </i>
    <i name="e_wo_entrp">    -10.67904332 </i>
    <i name="e_0_energy">    -10.67904332 </i>
   </energy>
  </scstep>
  <scstep>
   <time name="total"> 1039.88 1056.24</time>
   <energy>
    <i name="alphaZ">    131.13230232 </i>
    <i name="ewald">  -2699.00129049 </i>
    <i name="hartreedc">  -1509.07701459 </i>
    <i name="XCdc">    111.24623360 </i>
    <i name="pawpsdc">   4849.35973384 </i>
    <i name="pawaedc">  -5688.10745499 </i>
    <i name="eentropy">     -0.00000000 </i>
    <i name="bandstr">   -471.82366209 </i>
    <i name="atom">   5189.13196876 </i>
    <i name="e_fr_energy">    -10.67911279 </i>
    <i name="e_wo_entrp">    -10.67911279 </i>
    <i name="e_0_energy">    -10.67911279 </i>
   </energy>
  </scstep>
  <structure>
   <crystal>
    <varray name="basis" >
     <v>       0.00000000       2.81650000       2.81650000 </v>
     <v>       2.81650000       0.00000000       2.81650000 </v>
     <v>       2.81650000       2.81650000       0.00000000 </v>
    </varray>
    <i name="volume">     44.68474278 </i>
    <varray name="rec_basis" >
     <v>      -0.17752530       0.17752530       0.17752530 </v>
     <v>       0.17752530      -0.17752530       0.17752530 </v>
     <v>       0.17752530       0.17752530      -0.17752530 </v>
    </varray>
   </crystal>
   <varray name="positions" >
    <v>       0.00000000       0.00000000       0.00000000 </v>
    <v>       0.25000000       0.25000000       0.25000000 </v>
   </varray>
  </structure>
  <varray name="forces" >
   <v>      -0.00000000       0.00000000      -0.00000000 </v>
   <v>       0.00000000      -0.00000000       0.00000000 </v>
  </varray>
  <energy>
   <i name="e_fr_energy">    -10.67911279 </i>
   <i name="e_wo_entrp">    -10.67911279 </i>
   <i name="e_0_energy">     -0.00000000 </i>
  </energy>
  <time name="totalsc"> 6452.78 6554.39</time>
  <eigenvalues>
   <array>
    <dimension dim="1">band</dimension>
    <dimension dim="2">kpoint</dimension>
    <dimension dim="3">spin</dimension>
    <field>eigene</field>
    <field>occ</field>
    <set>
     <set comment="spin 1">
      <set comment="kpoint 1">
       <r>  -23.1725    1.0000 </r>
       <r>  -23.1725    1.0000 </r>
       <r>  -23.1724    1.0000 </r>
       <r>  -23.1349    1.0000 </r>
       <r>  -23.1349    1.0000 </r>
       <r>  -22.9191    1.0000 </r>
       <r>  -22.9191    1.0000 </r>
       <r>  -22.9191    1.0000 </r>
       <r>  -22.9013    1.0000 </r>
       <r>  -22.9013    1.0000 </r>
       <r>   -9.3684    1.0000 </r>
       <r>    4.7971    1.0000 </r>
       <r>    4.7971    1.0000 </r>
       <r>    4.7971    1.0000 </r>
       <r>    5.8362    0.0000 </r>
       <r>    8.0441    0.0000 </r>
       <r>    8.0441    0.0000 </r>
       <r>    8.0441    0.0000 </r>
       <r>   12.0673    0.0000 </r>
       <r>   15.2238    0.0000 </r>
       <r>   15.2238    0.0000 </r>
       <r>   16.5556    0.0000 </r>
       <r>   16.5556    0.0000 </r>
       <r>   16.5556    0.0000 </r>
       <r>   19.5064    0.0000 </r>
       <r>   31.8843    0.0000 </r>
       <r>   31.8843    0.0000 </r>
       <r>   31.8843    0.0000 </r>
       <r>   32.4376    0.0000 </r>
       <r>   32.4376    0.0000 </r>
       <r>   32.4376    0.0000 </r>
       <r>   32.9846    0.0000 </r>
       <r>   32.9846    0.0000 </r>
       <r>   32.9846    0.0000 </r>
       <r>   34.0179    0.0000 </r>
       <r>   34.0179    0.0000 </r>
       <r>   40.8544    0.0000 </r>
       <r>   45.9457    0.0000 </r>
       <r>   46.2037    0.0000 </r>
       <r>   46.2449    0.0000 </r>
       <r>   46.4302    0.0000 </r>
       <r>   46.5092    0.0000 </r>
       <r>   46.7299    0.0000 </r>
       <r>   47.0365    0.0000 </r>
       <r>   47.3906    0.0000 </r>
       <r>   47.5430    0.0000 </r>
       <r>   47.6460    0.0000 </r>
       <r>   47.7929    0.0000 </r>
       <r>   47.9677    0.0000 </r>
       <r>   48.2081    0.0000 </r>
       <r>   48.3497    0.0000 </r>
       <r>   48.6497    0.0000 </r>
       <r>   48.7397    0.0000 </r>
       <r>   48.9943    0.0000 </r>
      </set>
      <set comment="kpoint 2">
       <r>  -23.1851    1.0000 </r>
       <r>  -23.1851    1.0000 </r>
       <r>  -23.1684    1.0000 </r>
       <r>  -23.1167    1.0000 </r>
       <r>  -23.1167    1.0000 </r>
       <r>  -22.9348    1.0000 </r>
       <r>  -22.9348    1.0000 </r>
       <r>  -22.9239    1.0000 </r>
       <r>  -22.8887    1.0000 </r>
       <r>  -22.8887    1.0000 </r>
       <r>   -8.9904    1.0000 </r>
       <r>    1.5219    1.0000 </r>
       <r>    4.2401    1.0000 </r>
       <r>    4.2402    1.0000 </r>
       <r>    6.5414    0.0000 </r>
       <r>    8.7885    0.0000 </r>
       <r>    8.7886    0.0000 </r>
       <r>    9.8495    0.0000 </r>
       <r>   13.5596    0.0000 </r>
       <r>   14.0027    0.0000 </r>
       <r>   14.0027    0.0000 </r>
       <r>   15.7189    0.0000 </r>
       <r>   19.1423    0.0000 </r>
       <r>   19.1424    0.0000 </r>
       <r>   21.8728    0.0000 </r>
       <r>   27.0674    0.0000 </r>
       <r>   27.0674    0.0000 </r>
       <r>   27.3670    0.0000 </r>
       <r>   32.4207    0.0000 </r>
       <r>   32.4207    0.0000 </r>
       <r>   32.7331    0.0000 </r>
       <r>   33.7899    0.0000 </r>
       <r>   33.7900    0.0000 </r>
       <r>   36.2401    0.0000 </r>
       <r>   39.3975    0.0000 </r>
       <r>   39.3982    0.0000 </r>
       <r>   39.4078    0.0000 </r>
       <r>   40.3419    0.0000 </r>
       <r>   40.3438    0.0000 </r>
       <r>   42.9098    0.0000 </r>
       <r>   43.0834    0.0000 </r>
       <r>   43.1173    0.0000 </r>
       <r>   43.8103    0.0000 </r>
       <r>   43.8228    0.0000 </r>
       <r>   43.8596    0.0000 </r>
       <r>   43.9691    0.0000 </r>
       <r>   46.2055    0.0000 </r>
       <r>   47.0818    0.0000 </r>
       <r>   47.1474    0.0000 </r>
       <r>   47.3955    0.0000 </r>
       <r>   49.1975    0.0000 </r>
       <r>   49.6102    0.0000 </r>
       <r>   50.9693    0.0000 </r>
       <r>   52.1444    0.0000 </r>
      </set>
      <set comment="kpoint 3">
       <r>  -23.1960    1.0000 </r>
       <r>  -23.1960    1.0000 </r>
       <r>  -23.1597    1.0000 </r>
       <r>  -23.0969    1.0000 </r>
       <r>  -23.0969    1.0000 </r>
       <r>  -22.9484    1.0000 </r>
       <r>  -22.9484    1.0000 </r>
       <r>  -22.9338    1.0000 </r>
       <r>  -22.8792    1.0000 </r>
       <r>  -22.8792    1.0000 </r>
       <r>   -7.9377    1.0000 </r>
       <r>   -1.8395    1.0000 </r>
       <r>    3.5216    1.0000 </r>
       <r>    3.5216    1.0000 </r>
       <r>    5.9256    0.0000 </r>
       <r>    9.3411    0.0000 </r>
       <r>    9.3412    0.0000 </r>
       <r>   12.8815    0.0000 </r>
       <r>   13.5939    0.0000 </r>
       <r>   14.7186    0.0000 </r>
       <r>   14.7186    0.0000 </r>
       <r>   18.5382    0.0000 </r>
       <r>   22.0079    0.0000 </r>
       <r>   22.0079    0.0000 </r>
       <r>   23.1663    0.0000 </r>
       <r>   23.2912    0.0000 </r>
       <r>   23.2912    0.0000 </r>
       <r>   26.2117    0.0000 </r>
       <r>   32.6424    0.0000 </r>
       <r>   33.3664    0.0000 </r>
       <r>   33.3664    0.0000 </r>
       <r>   33.4861    0.0000 </r>
       <r>   33.9367    0.0000 </r>
       <r>   33.9367    0.0000 </r>
       <r>   34.6365    0.0000 </r>
       <r>   34.6365    0.0000 </r>
       <r>   37.4092    0.0000 </r>
       <r>   39.0550    0.0000 </r>
       <r>   40.0940    0.0000 </r>
       <r>   40.0962    0.0000 </r>
       <r>   40.4123    0.0000 </r>
       <r>   40.4126    0.0000 </r>
       <r>   40.7746    0.0000 </r>
       <r>   42.2846    0.0000 </r>
       <r>   45.2162    0.0000 </r>
       <r>   46.2305    0.0000 </r>
       <r>   46.3262    0.0000 </r>
       <r>   47.1333    0.0000 </r>
       <r>   47.2243    0.0000 </r>
       <r>   48.3451    0.0000 </r>
       <r>   48.4679    0.0000 </r>
       <r>   49.0480    0.0000 </r>
       <r>   50.8074    0.0000 </r>
       <r>   54.6609    0.0000 </r>
      </set>
      <set comment="kpoint 4">
       <r>  -23.1988    1.0000 </r>
       <r>  -23.1988    1.0000 </r>
       <r>  -23.1551    1.0000 </r>
       <r>  -23.0914    1.0000 </r>
       <r>  -23.0914    1.0000 </r>
       <r>  -22.9512    1.0000 </r>
       <r>  -22.9512    1.0000 </r>
       <r>  -22.9389    1.0000 </r>
       <r>  -22.8770    1.0000 </r>
       <r>  -22.8770    1.0000 </r>
       <r>   -7.0000    1.0000 </r>
       <r>   -3.5788    1.0000 </r>
       <r>    3.2518    1.0000 </r>
       <r>    3.2519    1.0000 </r>
       <r>    5.6792    0.0000 </r>
       <r>    9.2831    0.0000 </r>
       <r>    9.2831    0.0000 </r>
       <r>   12.7437    0.0000 </r>
       <r>   16.5079    0.0000 </r>
       <r>   17.2063    0.0000 </r>
       <r>   17.2063    0.0000 </r>
       <r>   17.4667    0.0000 </r>
       <r>   18.3984    0.0000 </r>
       <r>   18.3985    0.0000 </r>
       <r>   24.9313    0.0000 </r>
       <r>   27.3550    0.0000 </r>
       <r>   27.8549    0.0000 </r>
       <r>   27.8549    0.0000 </r>
       <r>   28.5252    0.0000 </r>
       <r>   28.5252    0.0000 </r>
       <r>   31.4235    0.0000 </r>
       <r>   32.0252    0.0000 </r>
       <r>   34.0168    0.0000 </r>
       <r>   34.1661    0.0000 </r>
       <r>   34.1661    0.0000 </r>
       <r>   35.2991    0.0000 </r>
       <r>   35.2991    0.0000 </r>
       <r>   38.7643    0.0000 </r>
       <r>   38.7643    0.0000 </r>
       <r>   38.8020    0.0000 </r>
       <r>   38.8020    0.0000 </r>
       <r>   39.4737    0.0000 </r>
       <r>   39.5833    0.0000 </r>
       <r>   40.9644    0.0000 </r>
       <r>   44.8467    0.0000 </r>
       <r>   46.9710    0.0000 </r>
       <r>   46.9872    0.0000 </r>
       <r>   47.4597    0.0000 </r>
       <r>   47.4869    0.0000 </r>
       <r>   49.0137    0.0000 </r>
       <r>   53.9031    0.0000 </r>
       <r>   54.5284    0.0000 </r>
       <r>   55.0362    0.0000 </r>
       <r>   55.9444    0.0000 </r>
      </set>
      <set comment="kpoint 5">
       <r>  -23.1829    1.0000 </r>
       <r>  -23.1829    1.0000 </r>
       <r>  -23.1821    1.0000 </r>
       <r>  -23.1186    1.0000 </r>
       <r>  -23.0957    1.0000 </r>
       <r>  -22.9703    1.0000 </r>
       <r>  -22.9164    1.0000 </r>
       <r>  -22.9040    1.0000 </r>
       <r>  -22.9040    1.0000 </r>
       <r>  -22.8852    1.0000 </r>
       <r>   -8.8608    1.0000 </r>
       <r>    1.5884    1.0000 </r>
       <r>    3.4018    1.0000 </r>
       <r>    3.4018    1.0000 </r>
       <r>    6.9717    0.0000 </r>
       <r>    8.4565    0.0000 </r>
       <r>   10.0524    0.0000 </r>
       <r>   10.0525    0.0000 </r>
       <r>   12.4697    0.0000 </r>
       <r>   14.1887    0.0000 </r>
       <r>   15.7285    0.0000 </r>
       <r>   17.5317    0.0000 </r>
       <r>   17.5317    0.0000 </r>
       <r>   18.4130    0.0000 </r>
       <r>   23.4119    0.0000 </r>
       <r>   26.6981    0.0000 </r>
       <r>   26.6981    0.0000 </r>
       <r>   27.7173    0.0000 </r>
       <r>   28.2027    0.0000 </r>
       <r>   32.7009    0.0000 </r>
       <r>   32.7009    0.0000 </r>
       <r>   33.4358    0.0000 </r>
       <r>   36.2084    0.0000 </r>
       <r>   38.7992    0.0000 </r>
       <r>   38.8423    0.0000 </r>
       <r>   38.8428    0.0000 </r>
       <r>   39.3394    0.0000 </r>
       <r>   39.3412    0.0000 </r>
       <r>   39.6476    0.0000 </r>
       <r>   40.0333    0.0000 </r>
       <r>   42.7815    0.0000 </r>
       <r>   43.5514    0.0000 </r>
       <r>   43.5800    0.0000 </r>
       <r>   44.3733    0.0000 </r>
       <r>   44.8440    0.0000 </r>
       <r>   44.9104    0.0000 </r>
       <r>   45.7338    0.0000 </r>
       <r>   46.1055    0.0000 </r>
       <r>   46.2793    0.0000 </r>
       <r>   49.3785    0.0000 </r>
       <r>   49.5585    0.0000 </r>
       <r>   49.8413    0.0000 </r>
       <r>   51.0106    0.0000 </r>
       <r>   52.0212    0.0000 </r>
      </set>
      <set comment="kpoint 6">
       <r>  -23.2039    1.0000 </r>
       <r>  -23.1938    1.0000 </r>
       <r>  -23.1621    1.0000 </r>
       <r>  -23.0972    1.0000 </r>
       <r>  -23.0693    1.0000 </r>
       <r>  -22.9963    1.0000 </r>
       <r>  -22.9393    1.0000 </r>
       <r>  -22.9162    1.0000 </r>
       <r>  -22.8857    1.0000 </r>
       <r>  -22.8707    1.0000 </r>
       <r>   -8.0083    1.0000 </r>
       <r>   -1.0308    1.0000 </r>
       <r>    2.3532    1.0000 </r>
       <r>    2.7116    1.0000 </r>
       <r>    7.1883    0.0000 </r>
       <r>    8.8117    0.0000 </r>
       <r>   10.4777    0.0000 </r>
       <r>   10.9909    0.0000 </r>
       <r>   14.4297    0.0000 </r>
       <r>   15.5373    0.0000 </r>
       <r>   16.1045    0.0000 </r>
       <r>   17.9586    0.0000 </r>
       <r>   20.5007    0.0000 </r>
       <r>   21.9480    0.0000 </r>
       <r>   22.1212    0.0000 </r>
       <r>   22.5099    0.0000 </r>
       <r>   26.8936    0.0000 </r>
       <r>   27.5262    0.0000 </r>
       <r>   27.9853    0.0000 </r>
       <r>   29.4460    0.0000 </r>
       <r>   32.3906    0.0000 </r>
       <r>   33.4721    0.0000 </r>
       <r>   35.4463    0.0000 </r>
       <r>   35.4682    0.0000 </r>
       <r>   35.8602    0.0000 </r>
       <r>   36.9502    0.0000 </r>
       <r>   38.3201    0.0000 </r>
       <r>   38.6342    0.0000 </r>
       <r>   40.0511    0.0000 </r>
       <r>   40.5791    0.0000 </r>
       <r>   41.0414    0.0000 </r>
       <r>   41.3060    0.0000 </r>
       <r>   42.0732    0.0000 </r>
       <r>   43.0695    0.0000 </r>
       <r>   44.3452    0.0000 </r>
       <r>   45.1968    0.0000 </r>
       <r>   46.4061    0.0000 </r>
       <r>   47.7513    0.0000 </r>
       <r>   48.0248    0.0000 </r>
       <r>   48.6408    0.0000 </r>
       <r>   49.7539    0.0000 </r>
       <r>   50.2252    0.0000 </r>
       <r>   51.0194    0.0000 </r>
       <r>   51.7240    0.0000 </r>
      </set>
      <set comment="kpoint 7">
       <r>  -23.2158    1.0000 </r>
       <r>  -23.2024    1.0000 </r>
       <r>  -23.1378    1.0000 </r>
       <r>  -23.0774    1.0000 </r>
       <r>  -23.0688    1.0000 </r>
       <r>  -22.9907    1.0000 </r>
       <r>  -22.9621    1.0000 </r>
       <r>  -22.9429    1.0000 </r>
       <r>  -22.8723    1.0000 </r>
       <r>  -22.8585    1.0000 </r>
       <r>   -6.8055    1.0000 </r>
       <r>   -3.3259    1.0000 </r>
       <r>    1.4319    1.0000 </r>
       <r>    2.6300    1.0000 </r>
       <r>    7.0912    0.0000 </r>
       <r>    9.3949    0.0000 </r>
       <r>   10.6289    0.0000 </r>
       <r>   12.1545    0.0000 </r>
       <r>   15.0138    0.0000 </r>
       <r>   17.0063    0.0000 </r>
       <r>   17.2000    0.0000 </r>
       <r>   18.0934    0.0000 </r>
       <r>   18.9965    0.0000 </r>
       <r>   22.6323    0.0000 </r>
       <r>   24.2382    0.0000 </r>
       <r>   25.0128    0.0000 </r>
       <r>   26.4847    0.0000 </r>
       <r>   27.3323    0.0000 </r>
       <r>   28.8449    0.0000 </r>
       <r>   29.7271    0.0000 </r>
       <r>   30.0778    0.0000 </r>
       <r>   31.9889    0.0000 </r>
       <r>   32.2448    0.0000 </r>
       <r>   33.4593    0.0000 </r>
       <r>   33.7878    0.0000 </r>
       <r>   34.3554    0.0000 </r>
       <r>   35.0395    0.0000 </r>
       <r>   37.1882    0.0000 </r>
       <r>   38.5645    0.0000 </r>
       <r>   39.2668    0.0000 </r>
       <r>   39.9571    0.0000 </r>
       <r>   40.9767    0.0000 </r>
       <r>   43.0209    0.0000 </r>
       <r>   43.8824    0.0000 </r>
       <r>   44.0220    0.0000 </r>
       <r>   45.6784    0.0000 </r>
       <r>   46.0728    0.0000 </r>
       <r>   48.7915    0.0000 </r>
       <r>   50.1378    0.0000 </r>
       <r>   51.2999    0.0000 </r>
       <r>   51.7388    0.0000 </r>
       <r>   52.1555    0.0000 </r>
       <r>   52.6915    0.0000 </r>
       <r>   55.3921    0.0000 </r>
      </set>
      <set comment="kpoint 8">
       <r>  -23.2123    1.0000 </r>
       <r>  -23.2056    1.0000 </r>
       <r>  -23.1337    1.0000 </r>
       <r>  -23.0897    1.0000 </r>
       <r>  -23.0692    1.0000 </r>
       <r>  -22.9764    1.0000 </r>
       <r>  -22.9610    1.0000 </r>
       <r>  -22.9512    1.0000 </r>
       <r>  -22.8667    1.0000 </r>
       <r>  -22.8642    1.0000 </r>
       <r>   -7.1862    1.0000 </r>
       <r>   -2.7052    1.0000 </r>
       <r>    1.1870    1.0000 </r>
       <r>    3.1724    1.0000 </r>
       <r>    7.2958    0.0000 </r>
       <r>    9.6089    0.0000 </r>
       <r>   10.0908    0.0000 </r>
       <r>   12.5962    0.0000 </r>
       <r>   14.0325    0.0000 </r>
       <r>   14.9716    0.0000 </r>
       <r>   16.9268    0.0000 </r>
       <r>   19.0071    0.0000 </r>
       <r>   20.6199    0.0000 </r>
       <r>   22.5457    0.0000 </r>
       <r>   22.7854    0.0000 </r>
       <r>   24.2417    0.0000 </r>
       <r>   27.0369    0.0000 </r>
       <r>   28.5893    0.0000 </r>
       <r>   28.9390    0.0000 </r>
       <r>   29.7602    0.0000 </r>
       <r>   30.2424    0.0000 </r>
       <r>   30.4276    0.0000 </r>
       <r>   33.2688    0.0000 </r>
       <r>   33.8824    0.0000 </r>
       <r>   34.0537    0.0000 </r>
       <r>   34.3888    0.0000 </r>
       <r>   36.4777    0.0000 </r>
       <r>   38.0222    0.0000 </r>
       <r>   39.4466    0.0000 </r>
       <r>   40.0583    0.0000 </r>
       <r>   40.4035    0.0000 </r>
       <r>   40.7865    0.0000 </r>
       <r>   42.9463    0.0000 </r>
       <r>   43.1197    0.0000 </r>
       <r>   43.1932    0.0000 </r>
       <r>   45.9790    0.0000 </r>
       <r>   46.0764    0.0000 </r>
       <r>   47.3509    0.0000 </r>
       <r>   47.6192    0.0000 </r>
       <r>   49.7227    0.0000 </r>
       <r>   51.9446    0.0000 </r>
       <r>   53.1685    0.0000 </r>
       <r>   54.3827    0.0000 </r>
       <r>   55.3683    0.0000 </r>
      </set>
      <set comment="kpoint 9">
       <r>  -23.1996    1.0000 </r>
       <r>  -23.1951    1.0000 </r>
       <r>  -23.1562    1.0000 </r>
       <r>  -23.1072    1.0000 </r>
       <r>  -23.0883    1.0000 </r>
       <r>  -22.9634    1.0000 </r>
       <r>  -22.9490    1.0000 </r>
       <r>  -22.9187    1.0000 </r>
       <r>  -22.8877    1.0000 </r>
       <r>  -22.8719    1.0000 </r>
       <r>   -8.3755    1.0000 </r>
       <r>   -0.2218    1.0000 </r>
       <r>    2.0376    1.0000 </r>
       <r>    4.0431    1.0000 </r>
       <r>    7.5747    0.0000 </r>
       <r>    9.1590    0.0000 </r>
       <r>    9.3046    0.0000 </r>
       <r>   10.8325    0.0000 </r>
       <r>   12.8912    0.0000 </r>
       <r>   15.2323    0.0000 </r>
       <r>   15.2642    0.0000 </r>
       <r>   17.6842    0.0000 </r>
       <r>   18.9211    0.0000 </r>
       <r>   21.9231    0.0000 </r>
       <r>   22.6345    0.0000 </r>
       <r>   24.7606    0.0000 </r>
       <r>   26.7712    0.0000 </r>
       <r>   27.4697    0.0000 </r>
       <r>   27.7541    0.0000 </r>
       <r>   29.5145    0.0000 </r>
       <r>   33.0420    0.0000 </r>
       <r>   35.0037    0.0000 </r>
       <r>   36.0417    0.0000 </r>
       <r>   36.2695    0.0000 </r>
       <r>   36.9276    0.0000 </r>
       <r>   36.9516    0.0000 </r>
       <r>   39.5415    0.0000 </r>
       <r>   39.9684    0.0000 </r>
       <r>   40.3633    0.0000 </r>
       <r>   40.6406    0.0000 </r>
       <r>   40.8279    0.0000 </r>
       <r>   41.7529    0.0000 </r>
       <r>   42.8004    0.0000 </r>
       <r>   42.8107    0.0000 </r>
       <r>   43.3764    0.0000 </r>
       <r>   43.4123    0.0000 </r>
       <r>   45.2701    0.0000 </r>
       <r>   45.4492    0.0000 </r>
       <r>   48.1080    0.0000 </r>
       <r>   48.3655    0.0000 </r>
       <r>   48.9003    0.0000 </r>
       <r>   50.1773    0.0000 </r>
       <r>   50.6678    0.0000 </r>
       <r>   53.2003    0.0000 </r>
      </set>
      <set comment="kpoint 10">
       <r>  -23.2007    1.0000 </r>
       <r>  -23.2007    1.0000 </r>
       <r>  -23.1677    1.0000 </r>
       <r>  -23.0745    1.0000 </r>
       <r>  -23.0470    1.0000 </r>
       <r>  -23.0265    1.0000 </r>
       <r>  -22.9578    1.0000 </r>
       <r>  -22.9033    1.0000 </r>
       <r>  -22.8758    1.0000 </r>
       <r>  -22.8757    1.0000 </r>
       <r>   -7.3635    1.0000 </r>
       <r>   -1.8932    1.0000 </r>
       <r>    1.9201    1.0000 </r>
       <r>    1.9201    1.0000 </r>
       <r>    5.9687    0.0000 </r>
       <r>    7.4045    0.0000 </r>
       <r>   13.2616    0.0000 </r>
       <r>   13.2617    0.0000 </r>
       <r>   14.4933    0.0000 </r>
       <r>   17.2399    0.0000 </r>
       <r>   17.8645    0.0000 </r>
       <r>   20.5012    0.0000 </r>
       <r>   20.5012    0.0000 </r>
       <r>   20.9548    0.0000 </r>
       <r>   21.8006    0.0000 </r>
       <r>   21.8006    0.0000 </r>
       <r>   23.2496    0.0000 </r>
       <r>   24.4282    0.0000 </r>
       <r>   30.3397    0.0000 </r>
       <r>   31.4593    0.0000 </r>
       <r>   31.5579    0.0000 </r>
       <r>   31.5580    0.0000 </r>
       <r>   32.6482    0.0000 </r>
       <r>   34.1328    0.0000 </r>
       <r>   34.1328    0.0000 </r>
       <r>   34.8637    0.0000 </r>
       <r>   38.2398    0.0000 </r>
       <r>   40.0262    0.0000 </r>
       <r>   40.3543    0.0000 </r>
       <r>   40.3557    0.0000 </r>
       <r>   43.0080    0.0000 </r>
       <r>   43.0091    0.0000 </r>
       <r>   43.9654    0.0000 </r>
       <r>   44.3152    0.0000 </r>
       <r>   44.5145    0.0000 </r>
       <r>   46.1752    0.0000 </r>
       <r>   46.2201    0.0000 </r>
       <r>   46.4695    0.0000 </r>
       <r>   46.7708    0.0000 </r>
       <r>   46.9536    0.0000 </r>
       <r>   47.1298    0.0000 </r>
       <r>   47.3563    0.0000 </r>
       <r>   48.9267    0.0000 </r>
       <r>   54.1379    0.0000 </r>
      </set>
      <set comment="kpoint 11">
       <r>  -23.2184    1.0000 </r>
       <r>  -23.2072    1.0000 </r>
       <r>  -23.1329    1.0000 </r>
       <r>  -23.0663    1.0000 </r>
       <r>  -23.0474    1.0000 </r>
       <r>  -23.0061    1.0000 </r>
       <r>  -22.9865    1.0000 </r>
       <r>  -22.9411    1.0000 </r>
       <r>  -22.8655    1.0000 </r>
       <r>  -22.8544    1.0000 </r>
       <r>   -6.1481    1.0000 </r>
       <r>   -3.6099    1.0000 </r>
       <r>    0.6744    1.0000 </r>
       <r>    1.7400    1.0000 </r>
       <r>    6.3926    0.0000 </r>
       <r>    8.1538    0.0000 </r>
       <r>   12.9387    0.0000 </r>
       <r>   13.5575    0.0000 </r>
       <r>   16.4930    0.0000 </r>
       <r>   17.6099    0.0000 </r>
       <r>   18.2189    0.0000 </r>
       <r>   19.7543    0.0000 </r>
       <r>   19.8419    0.0000 </r>
       <r>   22.3818    0.0000 </r>
       <r>   23.5702    0.0000 </r>
       <r>   23.6706    0.0000 </r>
       <r>   24.6349    0.0000 </r>
       <r>   25.5097    0.0000 </r>
       <r>   26.2654    0.0000 </r>
       <r>   28.7724    0.0000 </r>
       <r>   28.9907    0.0000 </r>
       <r>   30.2351    0.0000 </r>
       <r>   31.6917    0.0000 </r>
       <r>   33.7444    0.0000 </r>
       <r>   35.0064    0.0000 </r>
       <r>   35.1831    0.0000 </r>
       <r>   37.2066    0.0000 </r>
       <r>   37.7746    0.0000 </r>
       <r>   39.2697    0.0000 </r>
       <r>   39.6755    0.0000 </r>
       <r>   40.3551    0.0000 </r>
       <r>   41.5140    0.0000 </r>
       <r>   42.7199    0.0000 </r>
       <r>   43.5226    0.0000 </r>
       <r>   44.4264    0.0000 </r>
       <r>   46.4316    0.0000 </r>
       <r>   47.4725    0.0000 </r>
       <r>   48.1202    0.0000 </r>
       <r>   48.4013    0.0000 </r>
       <r>   50.0812    0.0000 </r>
       <r>   51.7427    0.0000 </r>
       <r>   53.3575    0.0000 </r>
       <r>   53.7175    0.0000 </r>
       <r>   54.4337    0.0000 </r>
      </set>
      <set comment="kpoint 12">
       <r>  -23.2270    1.0000 </r>
       <r>  -23.2099    1.0000 </r>
       <r>  -23.1170    1.0000 </r>
       <r>  -23.0435    1.0000 </r>
       <r>  -23.0366    1.0000 </r>
       <r>  -23.0242    1.0000 </r>
       <r>  -23.0030    1.0000 </r>
       <r>  -22.9571    1.0000 </r>
       <r>  -22.8616    1.0000 </r>
       <r>  -22.8462    1.0000 </r>
       <r>   -5.9899    1.0000 </r>
       <r>   -3.7816    1.0000 </r>
       <r>   -0.1282    1.0000 </r>
       <r>    2.2457    1.0000 </r>
       <r>    6.8473    0.0000 </r>
       <r>   11.5939    0.0000 </r>
       <r>   12.3125    0.0000 </r>
       <r>   12.3133    0.0000 </r>
       <r>   12.8670    0.0000 </r>
       <r>   14.6118    0.0000 </r>
       <r>   19.6701    0.0000 </r>
       <r>   19.7599    0.0000 </r>
       <r>   22.0624    0.0000 </r>
       <r>   23.3774    0.0000 </r>
       <r>   24.1319    0.0000 </r>
       <r>   25.0200    0.0000 </r>
       <r>   25.0783    0.0000 </r>
       <r>   27.2256    0.0000 </r>
       <r>   28.0183    0.0000 </r>
       <r>   28.4090    0.0000 </r>
       <r>   28.5501    0.0000 </r>
       <r>   28.9492    0.0000 </r>
       <r>   31.8767    0.0000 </r>
       <r>   32.4792    0.0000 </r>
       <r>   32.6811    0.0000 </r>
       <r>   34.2373    0.0000 </r>
       <r>   34.8701    0.0000 </r>
       <r>   37.6272    0.0000 </r>
       <r>   39.5462    0.0000 </r>
       <r>   40.2656    0.0000 </r>
       <r>   40.4392    0.0000 </r>
       <r>   40.8670    0.0000 </r>
       <r>   41.1504    0.0000 </r>
       <r>   41.5222    0.0000 </r>
       <r>   47.4209    0.0000 </r>
       <r>   48.5558    0.0000 </r>
       <r>   49.1707    0.0000 </r>
       <r>   50.2861    0.0000 </r>
       <r>   50.4207    0.0000 </r>
       <r>   51.3448    0.0000 </r>
       <r>   51.6653    0.0000 </r>
       <r>   52.8388    0.0000 </r>
       <r>   53.6202    0.0000 </r>
       <r>   53.9866    0.0000 </r>
      </set>
      <set comment="kpoint 13">
       <r>  -23.2087    1.0000 </r>
       <r>  -23.2087    1.0000 </r>
       <r>  -23.1194    1.0000 </r>
       <r>  -23.1194    1.0000 </r>
       <r>  -23.0157    1.0000 </r>
       <r>  -23.0157    1.0000 </r>
       <r>  -22.9558    1.0000 </r>
       <r>  -22.9558    1.0000 </r>
       <r>  -22.8627    1.0000 </r>
       <r>  -22.8627    1.0000 </r>
       <r>   -4.9729    1.0000 </r>
       <r>   -4.9729    1.0000 </r>
       <r>    1.3884    1.0000 </r>
       <r>    1.3884    1.0000 </r>
       <r>    6.0666    0.0000 </r>
       <r>    6.0667    0.0000 </r>
       <r>   15.7457    0.0000 </r>
       <r>   15.7458    0.0000 </r>
       <r>   17.8231    0.0000 </r>
       <r>   17.8231    0.0000 </r>
       <r>   18.7496    0.0000 </r>
       <r>   18.7496    0.0000 </r>
       <r>   19.7501    0.0000 </r>
       <r>   19.7501    0.0000 </r>
       <r>   25.1315    0.0000 </r>
       <r>   25.1315    0.0000 </r>
       <r>   25.1496    0.0000 </r>
       <r>   25.1496    0.0000 </r>
       <r>   25.4776    0.0000 </r>
       <r>   25.4776    0.0000 </r>
       <r>   26.3178    0.0000 </r>
       <r>   26.3179    0.0000 </r>
       <r>   35.5594    0.0000 </r>
       <r>   35.5595    0.0000 </r>
       <r>   36.4531    0.0000 </r>
       <r>   36.4531    0.0000 </r>
       <r>   38.3007    0.0000 </r>
       <r>   38.3007    0.0000 </r>
       <r>   39.6760    0.0000 </r>
       <r>   39.6761    0.0000 </r>
       <r>   41.1527    0.0000 </r>
       <r>   41.1536    0.0000 </r>
       <r>   42.4228    0.0000 </r>
       <r>   42.4238    0.0000 </r>
       <r>   43.9167    0.0000 </r>
       <r>   43.9184    0.0000 </r>
       <r>   45.3826    0.0000 </r>
       <r>   45.3999    0.0000 </r>
       <r>   46.4489    0.0000 </r>
       <r>   46.4620    0.0000 </r>
       <r>   54.2641    0.0000 </r>
       <r>   54.5001    0.0000 </r>
       <r>   55.0072    0.0000 </r>
       <r>   55.5417    0.0000 </r>
      </set>
      <set comment="kpoint 14">
       <r>  -23.2142    1.0000 </r>
       <r>  -23.2108    1.0000 </r>
       <r>  -23.1327    1.0000 </r>
       <r>  -23.0759    1.0000 </r>
       <r>  -23.0399    1.0000 </r>
       <r>  -23.0245    1.0000 </r>
       <r>  -22.9624    1.0000 </r>
       <r>  -22.9450    1.0000 </r>
       <r>  -22.8621    1.0000 </r>
       <r>  -22.8612    1.0000 </r>
       <r>   -6.9755    1.0000 </r>
       <r>   -2.5531    1.0000 </r>
       <r>    0.7368    1.0000 </r>
       <r>    2.1211    1.0000 </r>
       <r>    8.2758    0.0000 </r>
       <r>    8.8896    0.0000 </r>
       <r>    9.8503    0.0000 </r>
       <r>   13.0081    0.0000 </r>
       <r>   15.1653    0.0000 </r>
       <r>   15.8906    0.0000 </r>
       <r>   18.4646    0.0000 </r>
       <r>   18.9677    0.0000 </r>
       <r>   19.9401    0.0000 </r>
       <r>   22.3326    0.0000 </r>
       <r>   22.4463    0.0000 </r>
       <r>   24.3631    0.0000 </r>
       <r>   25.6600    0.0000 </r>
       <r>   28.2498    0.0000 </r>
       <r>   28.5203    0.0000 </r>
       <r>   28.8110    0.0000 </r>
       <r>   29.4762    0.0000 </r>
       <r>   31.2330    0.0000 </r>
       <r>   31.6552    0.0000 </r>
       <r>   33.8330    0.0000 </r>
       <r>   34.5102    0.0000 </r>
       <r>   35.4805    0.0000 </r>
       <r>   36.3176    0.0000 </r>
       <r>   37.4230    0.0000 </r>
       <r>   37.5119    0.0000 </r>
       <r>   41.1014    0.0000 </r>
       <r>   41.3488    0.0000 </r>
       <r>   41.7035    0.0000 </r>
       <r>   42.3637    0.0000 </r>
       <r>   43.9264    0.0000 </r>
       <r>   46.5267    0.0000 </r>
       <r>   46.8757    0.0000 </r>
       <r>   47.2916    0.0000 </r>
       <r>   47.6036    0.0000 </r>
       <r>   48.6636    0.0000 </r>
       <r>   49.0377    0.0000 </r>
       <r>   49.9513    0.0000 </r>
       <r>   50.6048    0.0000 </r>
       <r>   52.1810    0.0000 </r>
       <r>   54.3380    0.0000 </r>
      </set>
      <set comment="kpoint 15">
       <r>  -23.2244    1.0000 </r>
       <r>  -23.2139    1.0000 </r>
       <r>  -23.1099    1.0000 </r>
       <r>  -23.0570    1.0000 </r>
       <r>  -23.0336    1.0000 </r>
       <r>  -23.0263    1.0000 </r>
       <r>  -22.9903    1.0000 </r>
       <r>  -22.9628    1.0000 </r>
       <r>  -22.8585    1.0000 </r>
       <r>  -22.8485    1.0000 </r>
       <r>   -5.9837    1.0000 </r>
       <r>   -3.8208    1.0000 </r>
       <r>    0.2314    1.0000 </r>
       <r>    1.6305    1.0000 </r>
       <r>    8.6543    0.0000 </r>
       <r>    9.1009    0.0000 </r>
       <r>   11.8706    0.0000 </r>
       <r>   11.9191    0.0000 </r>
       <r>   13.8487    0.0000 </r>
       <r>   17.8229    0.0000 </r>
       <r>   17.9996    0.0000 </r>
       <r>   18.4795    0.0000 </r>
       <r>   22.5608    0.0000 </r>
       <r>   22.9745    0.0000 </r>
       <r>   23.7524    0.0000 </r>
       <r>   24.7767    0.0000 </r>
       <r>   25.2402    0.0000 </r>
       <r>   27.5105    0.0000 </r>
       <r>   28.0757    0.0000 </r>
       <r>   28.6826    0.0000 </r>
       <r>   29.2137    0.0000 </r>
       <r>   30.4857    0.0000 </r>
       <r>   30.9846    0.0000 </r>
       <r>   31.9655    0.0000 </r>
       <r>   33.1899    0.0000 </r>
       <r>   34.2955    0.0000 </r>
       <r>   35.8870    0.0000 </r>
       <r>   36.2573    0.0000 </r>
       <r>   36.3855    0.0000 </r>
       <r>   37.0131    0.0000 </r>
       <r>   42.0747    0.0000 </r>
       <r>   42.7226    0.0000 </r>
       <r>   45.1692    0.0000 </r>
       <r>   45.3158    0.0000 </r>
       <r>   46.1507    0.0000 </r>
       <r>   46.3824    0.0000 </r>
       <r>   47.7264    0.0000 </r>
       <r>   48.8828    0.0000 </r>
       <r>   49.4008    0.0000 </r>
       <r>   49.8667    0.0000 </r>
       <r>   50.3113    0.0000 </r>
       <r>   52.8883    0.0000 </r>
       <r>   53.7835    0.0000 </r>
       <r>   55.3375    0.0000 </r>
      </set>
      <set comment="kpoint 16">
       <r>  -23.2198    1.0000 </r>
       <r>  -23.2198    1.0000 </r>
       <r>  -23.0889    1.0000 </r>
       <r>  -23.0889    1.0000 </r>
       <r>  -23.0195    1.0000 </r>
       <r>  -23.0195    1.0000 </r>
       <r>  -22.9818    1.0000 </r>
       <r>  -22.9818    1.0000 </r>
       <r>  -22.8522    1.0000 </r>
       <r>  -22.8522    1.0000 </r>
       <r>   -4.8847    1.0000 </r>
       <r>   -4.8847    1.0000 </r>
       <r>    0.6772    1.0000 </r>
       <r>    0.6772    1.0000 </r>
       <r>    8.1865    0.0000 </r>
       <r>    8.1865    0.0000 </r>
       <r>   12.4097    0.0000 </r>
       <r>   12.4097    0.0000 </r>
       <r>   17.1606    0.0000 </r>
       <r>   17.1606    0.0000 </r>
       <r>   19.0188    0.0000 </r>
       <r>   19.0188    0.0000 </r>
       <r>   22.8415    0.0000 </r>
       <r>   22.8415    0.0000 </r>
       <r>   23.1868    0.0000 </r>
       <r>   23.1868    0.0000 </r>
       <r>   24.8104    0.0000 </r>
       <r>   24.8104    0.0000 </r>
       <r>   28.5957    0.0000 </r>
       <r>   28.5957    0.0000 </r>
       <r>   29.6555    0.0000 </r>
       <r>   29.6555    0.0000 </r>
       <r>   30.6294    0.0000 </r>
       <r>   30.6294    0.0000 </r>
       <r>   33.9958    0.0000 </r>
       <r>   33.9958    0.0000 </r>
       <r>   35.9389    0.0000 </r>
       <r>   35.9389    0.0000 </r>
       <r>   39.8571    0.0000 </r>
       <r>   39.8572    0.0000 </r>
       <r>   41.4552    0.0000 </r>
       <r>   41.4582    0.0000 </r>
       <r>   43.3328    0.0000 </r>
       <r>   43.3441    0.0000 </r>
       <r>   46.2421    0.0000 </r>
       <r>   46.2552    0.0000 </r>
       <r>   48.2614    0.0000 </r>
       <r>   48.3609    0.0000 </r>
       <r>   49.5914    0.0000 </r>
       <r>   49.7193    0.0000 </r>
       <r>   53.6443    0.0000 </r>
       <r>   53.9932    0.0000 </r>
       <r>   54.3514    0.0000 </r>
       <r>   54.9935    0.0000 </r>
      </set>
      <set comment="kpoint 17">
       <r>  -23.1988    1.0000 </r>
       <r>  -23.1988    1.0000 </r>
       <r>  -23.1551    1.0000 </r>
       <r>  -23.0914    1.0000 </r>
       <r>  -23.0914    1.0000 </r>
       <r>  -22.9512    1.0000 </r>
       <r>  -22.9512    1.0000 </r>
       <r>  -22.9389    1.0000 </r>
       <r>  -22.8770    1.0000 </r>
       <r>  -22.8770    1.0000 </r>
       <r>   -7.0000    1.0000 </r>
       <r>   -3.5788    1.0000 </r>
       <r>    3.2519    1.0000 </r>
       <r>    3.2519    1.0000 </r>
       <r>    5.6791    0.0000 </r>
       <r>    9.2831    0.0000 </r>
       <r>    9.2831    0.0000 </r>
       <r>   12.7437    0.0000 </r>
       <r>   16.5078    0.0000 </r>
       <r>   17.2063    0.0000 </r>
       <r>   17.2063    0.0000 </r>
       <r>   17.4667    0.0000 </r>
       <r>   18.3985    0.0000 </r>
       <r>   18.3985    0.0000 </r>
       <r>   24.9313    0.0000 </r>
       <r>   27.3550    0.0000 </r>
       <r>   27.8549    0.0000 </r>
       <r>   27.8549    0.0000 </r>
       <r>   28.5253    0.0000 </r>
       <r>   28.5253    0.0000 </r>
       <r>   31.4235    0.0000 </r>
       <r>   32.0252    0.0000 </r>
       <r>   34.0168    0.0000 </r>
       <r>   34.1660    0.0000 </r>
       <r>   34.1660    0.0000 </r>
       <r>   35.2991    0.0000 </r>
       <r>   35.2991    0.0000 </r>
       <r>   38.7642    0.0000 </r>
       <r>   38.7643    0.0000 </r>
       <r>   38.8020    0.0000 </r>
       <r>   38.8020    0.0000 </r>
       <r>   39.4736    0.0000 </r>
       <r>   39.5831    0.0000 </r>
       <r>   40.9634    0.0000 </r>
       <r>   44.8436    0.0000 </r>
       <r>   46.9734    0.0000 </r>
       <r>   46.9951    0.0000 </r>
       <r>   47.4607    0.0000 </r>
       <r>   47.5046    0.0000 </r>
       <r>   49.1940    0.0000 </r>
       <r>   54.1304    0.0000 </r>
       <r>   54.6431    0.0000 </r>
       <r>   55.1255    0.0000 </r>
       <r>   55.4526    0.0000 </r>
      </set>
      <set comment="kpoint 18">
       <r>  -23.1987    1.0000 </r>
       <r>  -23.1987    1.0000 </r>
       <r>  -23.1551    1.0000 </r>
       <r>  -23.0913    1.0000 </r>
       <r>  -23.0913    1.0000 </r>
       <r>  -22.9512    1.0000 </r>
       <r>  -22.9511    1.0000 </r>
       <r>  -22.9388    1.0000 </r>
       <r>  -22.8769    1.0000 </r>
       <r>  -22.8769    1.0000 </r>
       <r>   -7.0055    1.0000 </r>
       <r>   -3.5703    1.0000 </r>
       <r>    3.2529    1.0000 </r>
       <r>    3.2529    1.0000 </r>
       <r>    5.6801    0.0000 </r>
       <r>    9.2836    0.0000 </r>
       <r>    9.2836    0.0000 </r>
       <r>   12.7452    0.0000 </r>
       <r>   16.4580    0.0000 </r>
       <r>   17.1662    0.0000 </r>
       <r>   17.1662    0.0000 </r>
       <r>   17.5142    0.0000 </r>
       <r>   18.4426    0.0000 </r>
       <r>   18.4426    0.0000 </r>
       <r>   24.8875    0.0000 </r>
       <r>   27.4032    0.0000 </r>
       <r>   27.7238    0.0000 </r>
       <r>   27.7238    0.0000 </r>
       <r>   28.6593    0.0000 </r>
       <r>   28.6593    0.0000 </r>
       <r>   31.2676    0.0000 </r>
       <r>   32.1865    0.0000 </r>
       <r>   34.0142    0.0000 </r>
       <r>   34.1621    0.0000 </r>
       <r>   34.1621    0.0000 </r>
       <r>   35.2955    0.0000 </r>
       <r>   35.2955    0.0000 </r>
       <r>   38.7674    0.0000 </r>
       <r>   38.7675    0.0000 </r>
       <r>   38.8121    0.0000 </r>
       <r>   38.8121    0.0000 </r>
       <r>   39.4791    0.0000 </r>
       <r>   39.5762    0.0000 </r>
       <r>   40.9721    0.0000 </r>
       <r>   44.8481    0.0000 </r>
       <r>   46.9679    0.0000 </r>
       <r>   47.0252    0.0000 </r>
       <r>   47.4694    0.0000 </r>
       <r>   47.5062    0.0000 </r>
       <r>   49.0485    0.0000 </r>
       <r>   53.6654    0.0000 </r>
       <r>   54.6827    0.0000 </r>
       <r>   55.1535    0.0000 </r>
       <r>   55.9473    0.0000 </r>
      </set>
      <set comment="kpoint 19">
       <r>  -23.1987    1.0000 </r>
       <r>  -23.1987    1.0000 </r>
       <r>  -23.1551    1.0000 </r>
       <r>  -23.0913    1.0000 </r>
       <r>  -23.0913    1.0000 </r>
       <r>  -22.9511    1.0000 </r>
       <r>  -22.9511    1.0000 </r>
       <r>  -22.9388    1.0000 </r>
       <r>  -22.8769    1.0000 </r>
       <r>  -22.8769    1.0000 </r>
       <r>   -7.0218    1.0000 </r>
       <r>   -3.5449    1.0000 </r>
       <r>    3.2560    1.0000 </r>
       <r>    3.2560    1.0000 </r>
       <r>    5.6829    0.0000 </r>
       <r>    9.2851    0.0000 </r>
       <r>    9.2851    0.0000 </r>
       <r>   12.7496    0.0000 </r>
       <r>   16.3307    0.0000 </r>
       <r>   17.0602    0.0000 </r>
       <r>   17.0602    0.0000 </r>
       <r>   17.6347    0.0000 </r>
       <r>   18.5608    0.0000 </r>
       <r>   18.5608    0.0000 </r>
       <r>   24.7661    0.0000 </r>
       <r>   27.4624    0.0000 </r>
       <r>   27.4624    0.0000 </r>
       <r>   27.5375    0.0000 </r>
       <r>   28.9294    0.0000 </r>
       <r>   28.9294    0.0000 </r>
       <r>   30.9797    0.0000 </r>
       <r>   32.4912    0.0000 </r>
       <r>   34.0066    0.0000 </r>
       <r>   34.1502    0.0000 </r>
       <r>   34.1502    0.0000 </r>
       <r>   35.2848    0.0000 </r>
       <r>   35.2848    0.0000 </r>
       <r>   38.7792    0.0000 </r>
       <r>   38.7792    0.0000 </r>
       <r>   38.8399    0.0000 </r>
       <r>   38.8399    0.0000 </r>
       <r>   39.4954    0.0000 </r>
       <r>   39.5556    0.0000 </r>
       <r>   40.9976    0.0000 </r>
       <r>   44.8479    0.0000 </r>
       <r>   46.9589    0.0000 </r>
       <r>   46.9688    0.0000 </r>
       <r>   47.4825    0.0000 </r>
       <r>   47.5025    0.0000 </r>
       <r>   48.9962    0.0000 </r>
       <r>   53.3824    0.0000 </r>
       <r>   54.3046    0.0000 </r>
       <r>   54.8730    0.0000 </r>
       <r>   56.4491    0.0000 </r>
      </set>
      <set comment="kpoint 20">
       <r>  -23.1987    1.0000 </r>
       <r>  -23.1987    1.0000 </r>
       <r>  -23.1552    1.0000 </r>
       <r>  -23.0914    1.0000 </r>
       <r>  -23.0914    1.0000 </r>
       <r>  -22.9511    1.0000 </r>
       <r>  -22.9511    1.0000 </r>
       <r>  -22.9387    1.0000 </r>
       <r>  -22.8769    1.0000 </r>
       <r>  -22.8769    1.0000 </r>
       <r>   -7.0485    1.0000 </r>
       <r>   -3.5030    1.0000 </r>
       <r>    3.2611    1.0000 </r>
       <r>    3.2611    1.0000 </r>
       <r>    5.6876    0.0000 </r>
       <r>    9.2875    0.0000 </r>
       <r>    9.2875    0.0000 </r>
       <r>   12.7570    0.0000 </r>
       <r>   16.1605    0.0000 </r>
       <r>   16.9139    0.0000 </r>
       <r>   16.9139    0.0000 </r>
       <r>   17.7928    0.0000 </r>
       <r>   18.7274    0.0000 </r>
       <r>   18.7274    0.0000 </r>
       <r>   24.5895    0.0000 </r>
       <r>   27.1688    0.0000 </r>
       <r>   27.1688    0.0000 </r>
       <r>   27.7343    0.0000 </r>
       <r>   29.2376    0.0000 </r>
       <r>   29.2376    0.0000 </r>
       <r>   30.6712    0.0000 </r>
       <r>   32.8297    0.0000 </r>
       <r>   33.9940    0.0000 </r>
       <r>   34.1306    0.0000 </r>
       <r>   34.1306    0.0000 </r>
       <r>   35.2673    0.0000 </r>
       <r>   35.2673    0.0000 </r>
       <r>   38.8023    0.0000 </r>
       <r>   38.8024    0.0000 </r>
       <r>   38.8823    0.0000 </r>
       <r>   38.8824    0.0000 </r>
       <r>   39.5225    0.0000 </r>
       <r>   39.5232    0.0000 </r>
       <r>   41.0393    0.0000 </r>
       <r>   44.8596    0.0000 </r>
       <r>   46.9425    0.0000 </r>
       <r>   47.0634    0.0000 </r>
       <r>   47.5135    0.0000 </r>
       <r>   47.5523    0.0000 </r>
       <r>   49.0477    0.0000 </r>
       <r>   52.9676    0.0000 </r>
       <r>   53.7627    0.0000 </r>
       <r>   55.1788    0.0000 </r>
       <r>   56.3017    0.0000 </r>
      </set>
      <set comment="kpoint 21">
       <r>  -23.1986    1.0000 </r>
       <r>  -23.1986    1.0000 </r>
       <r>  -23.1554    1.0000 </r>
       <r>  -23.0916    1.0000 </r>
       <r>  -23.0916    1.0000 </r>
       <r>  -22.9511    1.0000 </r>
       <r>  -22.9511    1.0000 </r>
       <r>  -22.9385    1.0000 </r>
       <r>  -22.8770    1.0000 </r>
       <r>  -22.8770    1.0000 </r>
       <r>   -7.0848    1.0000 </r>
       <r>   -3.4456    1.0000 </r>
       <r>    3.2683    1.0000 </r>
       <r>    3.2683    1.0000 </r>
       <r>    5.6941    0.0000 </r>
       <r>    9.2909    0.0000 </r>
       <r>    9.2909    0.0000 </r>
       <r>   12.7673    0.0000 </r>
       <r>   15.9688    0.0000 </r>
       <r>   16.7468    0.0000 </r>
       <r>   16.7468    0.0000 </r>
       <r>   17.9661    0.0000 </r>
       <r>   18.9230    0.0000 </r>
       <r>   18.9230    0.0000 </r>
       <r>   24.3797    0.0000 </r>
       <r>   26.8664    0.0000 </r>
       <r>   26.8664    0.0000 </r>
       <r>   27.9679    0.0000 </r>
       <r>   29.5605    0.0000 </r>
       <r>   29.5605    0.0000 </r>
       <r>   30.3677    0.0000 </r>
       <r>   33.1809    0.0000 </r>
       <r>   33.9765    0.0000 </r>
       <r>   34.1038    0.0000 </r>
       <r>   34.1038    0.0000 </r>
       <r>   35.2432    0.0000 </r>
       <r>   35.2432    0.0000 </r>
       <r>   38.8376    0.0000 </r>
       <r>   38.8376    0.0000 </r>
       <r>   38.9379    0.0000 </r>
       <r>   38.9379    0.0000 </r>
       <r>   39.4811    0.0000 </r>
       <r>   39.5602    0.0000 </r>
       <r>   41.0941    0.0000 </r>
       <r>   44.8686    0.0000 </r>
       <r>   46.9236    0.0000 </r>
       <r>   46.9371    0.0000 </r>
       <r>   47.5524    0.0000 </r>
       <r>   47.7175    0.0000 </r>
       <r>   49.0148    0.0000 </r>
       <r>   52.4971    0.0000 </r>
       <r>   53.0278    0.0000 </r>
       <r>   55.1346    0.0000 </r>
       <r>   56.6877    0.0000 </r>
      </set>
      <set comment="kpoint 22">
       <r>  -23.1985    1.0000 </r>
       <r>  -23.1985    1.0000 </r>
       <r>  -23.1555    1.0000 </r>
       <r>  -23.0917    1.0000 </r>
       <r>  -23.0917    1.0000 </r>
       <r>  -22.9510    1.0000 </r>
       <r>  -22.9510    1.0000 </r>
       <r>  -22.9383    1.0000 </r>
       <r>  -22.8771    1.0000 </r>
       <r>  -22.8771    1.0000 </r>
       <r>   -7.1297    1.0000 </r>
       <r>   -3.3735    1.0000 </r>
       <r>    3.2776    1.0000 </r>
       <r>    3.2776    1.0000 </r>
       <r>    5.7026    0.0000 </r>
       <r>    9.2950    0.0000 </r>
       <r>    9.2950    0.0000 </r>
       <r>   12.7803    0.0000 </r>
       <r>   15.7660    0.0000 </r>
       <r>   16.5697    0.0000 </r>
       <r>   16.5697    0.0000 </r>
       <r>   18.1426    0.0000 </r>
       <r>   19.1370    0.0000 </r>
       <r>   19.1370    0.0000 </r>
       <r>   24.1539    0.0000 </r>
       <r>   26.5618    0.0000 </r>
       <r>   26.5618    0.0000 </r>
       <r>   28.2123    0.0000 </r>
       <r>   29.8913    0.0000 </r>
       <r>   29.8913    0.0000 </r>
       <r>   30.0857    0.0000 </r>
       <r>   33.5389    0.0000 </r>
       <r>   33.9545    0.0000 </r>
       <r>   34.0702    0.0000 </r>
       <r>   34.0702    0.0000 </r>
       <r>   35.2132    0.0000 </r>
       <r>   35.2132    0.0000 </r>
       <r>   38.8849    0.0000 </r>
       <r>   38.8852    0.0000 </r>
       <r>   39.0054    0.0000 </r>
       <r>   39.0056    0.0000 </r>
       <r>   39.4309    0.0000 </r>
       <r>   39.6083    0.0000 </r>
       <r>   41.1594    0.0000 </r>
       <r>   44.8862    0.0000 </r>
       <r>   46.9033    0.0000 </r>
       <r>   46.9138    0.0000 </r>
       <r>   47.6057    0.0000 </r>
       <r>   47.6336    0.0000 </r>
       <r>   49.0314    0.0000 </r>
       <r>   52.0524    0.0000 </r>
       <r>   52.2591    0.0000 </r>
       <r>   54.6159    0.0000 </r>
       <r>   56.0681    0.0000 </r>
      </set>
      <set comment="kpoint 23">
       <r>  -23.1984    1.0000 </r>
       <r>  -23.1984    1.0000 </r>
       <r>  -23.1557    1.0000 </r>
       <r>  -23.0919    1.0000 </r>
       <r>  -23.0919    1.0000 </r>
       <r>  -22.9509    1.0000 </r>
       <r>  -22.9509    1.0000 </r>
       <r>  -22.9381    1.0000 </r>
       <r>  -22.8771    1.0000 </r>
       <r>  -22.8771    1.0000 </r>
       <r>   -7.1821    1.0000 </r>
       <r>   -3.2878    1.0000 </r>
       <r>    3.2889    1.0000 </r>
       <r>    3.2889    1.0000 </r>
       <r>    5.7129    0.0000 </r>
       <r>    9.2999    0.0000 </r>
       <r>    9.2999    0.0000 </r>
       <r>   12.7959    0.0000 </r>
       <r>   15.5574    0.0000 </r>
       <r>   16.3886    0.0000 </r>
       <r>   16.3886    0.0000 </r>
       <r>   18.3147    0.0000 </r>
       <r>   19.3632    0.0000 </r>
       <r>   19.3632    0.0000 </r>
       <r>   23.9246    0.0000 </r>
       <r>   26.2576    0.0000 </r>
       <r>   26.2576    0.0000 </r>
       <r>   28.4302    0.0000 </r>
       <r>   29.8542    0.0000 </r>
       <r>   30.2276    0.0000 </r>
       <r>   30.2276    0.0000 </r>
       <r>   33.9011    0.0000 </r>
       <r>   33.9281    0.0000 </r>
       <r>   34.0304    0.0000 </r>
       <r>   34.0304    0.0000 </r>
       <r>   35.1776    0.0000 </r>
       <r>   35.1776    0.0000 </r>
       <r>   38.9438    0.0000 </r>
       <r>   38.9439    0.0000 </r>
       <r>   39.0841    0.0000 </r>
       <r>   39.0841    0.0000 </r>
       <r>   39.3751    0.0000 </r>
       <r>   39.6664    0.0000 </r>
       <r>   41.2343    0.0000 </r>
       <r>   44.8905    0.0000 </r>
       <r>   46.8692    0.0000 </r>
       <r>   46.8709    0.0000 </r>
       <r>   47.6366    0.0000 </r>
       <r>   47.6706    0.0000 </r>
       <r>   49.1011    0.0000 </r>
       <r>   51.6218    0.0000 </r>
       <r>   52.6026    0.0000 </r>
       <r>   54.3757    0.0000 </r>
       <r>   56.6552    0.0000 </r>
      </set>
      <set comment="kpoint 24">
       <r>  -23.1983    1.0000 </r>
       <r>  -23.1983    1.0000 </r>
       <r>  -23.1559    1.0000 </r>
       <r>  -23.0922    1.0000 </r>
       <r>  -23.0922    1.0000 </r>
       <r>  -22.9508    1.0000 </r>
       <r>  -22.9508    1.0000 </r>
       <r>  -22.9379    1.0000 </r>
       <r>  -22.8772    1.0000 </r>
       <r>  -22.8772    1.0000 </r>
       <r>   -7.2410    1.0000 </r>
       <r>   -3.1896    1.0000 </r>
       <r>    3.3022    1.0000 </r>
       <r>    3.3022    1.0000 </r>
       <r>    5.7250    0.0000 </r>
       <r>    9.3053    0.0000 </r>
       <r>    9.3053    0.0000 </r>
       <r>   12.8140    0.0000 </r>
       <r>   15.3458    0.0000 </r>
       <r>   16.2070    0.0000 </r>
       <r>   16.2070    0.0000 </r>
       <r>   18.4767    0.0000 </r>
       <r>   19.5985    0.0000 </r>
       <r>   19.5985    0.0000 </r>
       <r>   23.7015    0.0000 </r>
       <r>   25.9550    0.0000 </r>
       <r>   25.9550    0.0000 </r>
       <r>   28.5529    0.0000 </r>
       <r>   29.7367    0.0000 </r>
       <r>   30.5682    0.0000 </r>
       <r>   30.5682    0.0000 </r>
       <r>   33.8977    0.0000 </r>
       <r>   33.9851    0.0000 </r>
       <r>   33.9851    0.0000 </r>
[...]
        <r>  0.0000  0.0000  0.0000  0.0000  0.0000  0.0000  0.1460  0.0000  0.0487 </r>
       </set>
       <set comment="band 24">
        <r>  0.0000  0.0000  0.0000  0.0000  0.0000  0.0000  0.1445  0.0000  0.0482 </r>
        <r>  0.0000  0.0000  0.0000  0.0000  0.0000  0.0000  0.1445  0.0000  0.0482 </r>
       </set>
       <set comment="band 25">
        <r>  0.0043  0.0268  0.0000  0.0000  0.0000  0.0000  0.0154  0.0036  0.0461 </r>
        <r>  0.0043  0.0268  0.0000  0.0000  0.0000  0.0000  0.0154  0.0036  0.0461 </r>
       </set>
       <set comment="band 26">
        <r>  0.0000  0.0000  0.0053  0.0150  0.0539  0.0189  0.0000  0.0000  0.0000 </r>
        <r>  0.0000  0.0000  0.0026  0.0177  0.0633  0.0095  0.0000  0.0000  0.0000 </r>
       </set>
       <set comment="band 27">
        <r>  0.0000  0.0000  0.0150  0.0053  0.0189  0.0539  0.0000  0.0000  0.0000 </r>
        <r>  0.0000  0.0000  0.0177  0.0026  0.0095  0.0633  0.0000  0.0000  0.0000 </r>
       </set>
       <set comment="band 28">
        <r>  0.0285  0.0306  0.0000  0.0000  0.0000  0.0000  0.0019  0.0006  0.0057 </r>
        <r>  0.0285  0.0306  0.0000  0.0000  0.0000  0.0000  0.0019  0.0006  0.0057 </r>
       </set>
       <set comment="band 29">
        <r>  0.0000  0.0000  0.0157  0.0091  0.0127  0.1120  0.0000  0.0000  0.0000 </r>
        <r>  0.0000  0.0000  0.0228  0.0021  0.0633  0.0613  0.0000  0.0000  0.0000 </r>
       </set>
       <set comment="band 30">
        <r>  0.0000  0.0000  0.0091  0.0157  0.1119  0.0127  0.0000  0.0000  0.0000 </r>
        <r>  0.0000  0.0000  0.0021  0.0228  0.0613  0.0633  0.0000  0.0000  0.0000 </r>
       </set>
       <set comment="band 31">
        <r>  0.0410  0.0000  0.0000  0.0000  0.0000  0.0000  0.0405  0.0396  0.1214 </r>
        <r>  0.0409  0.0000  0.0000  0.0000  0.0000  0.0000  0.0404  0.0397  0.1213 </r>
       </set>
       <set comment="band 32">
        <r>  0.0580  0.0092  0.0000  0.0000  0.0000  0.0000  0.0267  0.0340  0.0802 </r>
        <r>  0.0581  0.0092  0.0000  0.0000  0.0000  0.0000  0.0268  0.0340  0.0804 </r>
       </set>
       <set comment="band 33">
        <r>  0.0000  0.0000  0.0654  0.0461  0.0502  0.0367  0.0000  0.0000  0.0000 </r>
        <r>  0.0000  0.0000  0.0476  0.0640  0.0363  0.0506  0.0000  0.0000  0.0000 </r>
       </set>
       <set comment="band 34">
        <r>  0.0000  0.0000  0.0462  0.0655  0.0369  0.0502  0.0000  0.0000  0.0000 </r>
        <r>  0.0000  0.0000  0.0640  0.0478  0.0507  0.0363  0.0000  0.0000  0.0000 </r>
       </set>
       <set comment="band 35">
        <r>  0.0034  0.0141  0.0000  0.0000  0.0000  0.0000  0.0209  0.3501  0.0626 </r>
        <r>  0.0033  0.0142  0.0000  0.0000  0.0000  0.0000  0.0207  0.3534  0.0620 </r>
       </set>
       <set comment="band 36">
        <r>  0.0052  0.0119  0.0000  0.0000  0.0000  0.0000  0.0201  0.3609  0.0605 </r>
        <r>  0.0052  0.0117  0.0000  0.0000  0.0000  0.0000  0.0203  0.3576  0.0609 </r>
       </set>
       <set comment="band 37">
        <r>  0.0000  0.0000  0.0438  0.0120  0.0277  0.0028  0.0000  0.0000  0.0000 </r>
        <r>  0.0000  0.0000  0.0055  0.0502  0.0069  0.0237  0.0000  0.0000  0.0000 </r>
       </set>
       <set comment="band 38">
        <r>  0.0000  0.0000  0.0119  0.0439  0.0028  0.0276  0.0000  0.0000  0.0000 </r>
        <r>  0.0000  0.0000  0.0502  0.0055  0.0237  0.0069  0.0000  0.0000  0.0000 </r>
       </set>
       <set comment="band 39">
        <r>  0.0032  0.0136  0.0000  0.0000  0.0000  0.0000  0.0171  0.0331  0.0513 </r>
        <r>  0.0032  0.0136  0.0000  0.0000  0.0000  0.0000  0.0171  0.0333  0.0512 </r>
       </set>
       <set comment="band 40">
        <r>  0.0001  0.0171  0.0000  0.0000  0.0000  0.0000  0.0235  0.0219  0.0708 </r>
        <r>  0.0001  0.0171  0.0000  0.0000  0.0000  0.0000  0.0236  0.0220  0.0708 </r>
       </set>
       <set comment="band 41">
        <r>  0.0607  0.0010  0.0000  0.0000  0.0000  0.0000  0.0070  0.0017  0.0210 </r>
        <r>  0.0592  0.0010  0.0000  0.0000  0.0000  0.0000  0.0069  0.0017  0.0205 </r>
       </set>
       <set comment="band 42">
        <r>  0.0584  0.0043  0.0000  0.0000  0.0000  0.0000  0.0112  0.0021  0.0337 </r>
        <r>  0.0588  0.0043  0.0000  0.0000  0.0000  0.0000  0.0115  0.0020  0.0344 </r>
       </set>
       <set comment="band 43">
        <r>  0.0000  0.0000  0.0082  0.0231  0.0019  0.0064  0.0000  0.0000  0.0000 </r>
        <r>  0.0000  0.0000  0.0239  0.0077  0.0059  0.0024  0.0000  0.0000  0.0000 </r>
       </set>
       <set comment="band 44">
        <r>  0.0000  0.0000  0.0237  0.0085  0.0063  0.0016  0.0000  0.0000  0.0000 </r>
        <r>  0.0000  0.0000  0.0073  0.0239  0.0026  0.0063  0.0000  0.0000  0.0000 </r>
       </set>
       <set comment="band 45">
        <r>  0.0000  0.0000  0.0000  0.0000  0.0000  0.0000  0.0873  0.0000  0.0288 </r>
        <r>  0.0000  0.0000  0.0000  0.0000  0.0000  0.0000  0.2659  0.0000  0.0879 </r>
       </set>
       <set comment="band 46">
        <r>  0.0000  0.0000  0.0000  0.0000  0.0000  0.0000  0.2676  0.0000  0.0885 </r>
        <r>  0.0000  0.0000  0.0000  0.0000  0.0000  0.0000  0.0856  0.0000  0.0290 </r>
       </set>
       <set comment="band 47">
        <r>  0.0000  0.0000  0.0004  0.0197  0.0009  0.0288  0.0000  0.0000  0.0000 </r>
        <r>  0.0000  0.0000  0.0196  0.0007  0.0291  0.0007  0.0000  0.0000  0.0000 </r>
       </set>
       <set comment="band 48">
        <r>  0.0001  0.0000  0.0207  0.0005  0.0313  0.0016  0.0001  0.0001  0.0001 </r>
        <r>  0.0001  0.0000  0.0004  0.0177  0.0007  0.0282  0.0001  0.0001  0.0001 </r>
       </set>
       <set comment="band 49">
        <r>  0.0237  0.0081  0.0000  0.0000  0.0000  0.0000  0.0200  0.0675  0.0621 </r>
        <r>  0.0312  0.0056  0.0000  0.0000  0.0000  0.0000  0.0286  0.0483  0.0870 </r>
       </set>
       <set comment="band 50">
        <r>  0.0327  0.0045  0.0001  0.0000  0.0003  0.0004  0.0257  0.0509  0.0888 </r>
        <r>  0.0232  0.0055  0.0002  0.0000  0.0000  0.0000  0.0211  0.0687  0.0623 </r>
       </set>
       <set comment="band 51">
        <r>  0.0002  0.0004  0.0023  0.0015  0.0091  0.0074  0.0343  0.0006  0.0074 </r>
        <r>  0.0003  0.0004  0.0015  0.0023  0.0067  0.0025  0.0897  0.0003  0.0238 </r>
       </set>
       <set comment="band 52">
        <r>  0.0002  0.0027  0.0153  0.0165  0.0346  0.1134  0.0087  0.0001  0.0024 </r>
        <r>  0.0011  0.0011  0.0315  0.0139  0.0491  0.0639  0.0125  0.0006  0.0011 </r>
       </set>
       <set comment="band 53">
        <r>  0.0000  0.0001  0.0274  0.0112  0.0025  0.0144  0.0373  0.0000  0.0117 </r>
        <r>  0.0001  0.0001  0.0035  0.0031  0.0578  0.0973  0.0087  0.0000  0.0045 </r>
       </set>
       <set comment="band 54">
        <r>  0.0027  0.0042  0.0236  0.0356  0.0654  0.0459  0.0128  0.0006  0.0006 </r>
        <r>  0.0007  0.0132  0.0024  0.0052  0.1800  0.1313  0.0086  0.0017  0.0005 </r>
       </set>
      </set>
      <set comment="kpoint 116">
       <set comment="band 1">
        <r>  0.0000  0.0000  0.0001  0.0001  0.2365  0.2600  0.0000  0.0000  0.0000 </r>
        <r>  0.0000  0.0000  0.0001  0.0001  0.2601  0.2366  0.0000  0.0000  0.0000 </r>
       </set>
       <set comment="band 2">
        <r>  0.0000  0.0000  0.0001  0.0001  0.2600  0.2365  0.0000  0.0000  0.0000 </r>
        <r>  0.0000  0.0000  0.0001  0.0001  0.2366  0.2601  0.0000  0.0000  0.0000 </r>
       </set>
       <set comment="band 3">
        <r>  0.0005  0.0000  0.0000  0.0000  0.0000  0.0000  0.0727  0.1623  0.2182 </r>
        <r>  0.0002  0.0000  0.0000  0.0000  0.0000  0.0000  0.0276  0.4283  0.0828 </r>
       </set>
       <set comment="band 4">
        <r>  0.0002  0.0000  0.0000  0.0000  0.0000  0.0000  0.0276  0.4282  0.0827 </r>
        <r>  0.0005  0.0000  0.0000  0.0000  0.0000  0.0000  0.0728  0.1624  0.2183 </r>
       </set>
       <set comment="band 5">
        <r>  0.0000  0.0000  0.0000  0.0000  0.0000  0.0000  0.0000  0.0000  0.0000 </r>
        <r>  0.0000  0.0000  0.0000  0.0000  0.0000  0.0000  0.7464  0.0000  0.2488 </r>
       </set>
       <set comment="band 6">
        <r>  0.0000  0.0000  0.0000  0.0000  0.0000  0.0000  0.7464  0.0000  0.2488 </r>
        <r>  0.0000  0.0000  0.0000  0.0000  0.0000  0.0000  0.0000  0.0000  0.0000 </r>
       </set>
       <set comment="band 7">
        <r>  0.0002  0.0001  0.0000  0.0000  0.0000  0.0000  0.0365  0.3036  0.1096 </r>
        <r>  0.0005  0.0000  0.0000  0.0000  0.0000  0.0000  0.1118  0.0991  0.3354 </r>
       </set>
       <set comment="band 8">
        <r>  0.0005  0.0000  0.0000  0.0000  0.0000  0.0000  0.1118  0.0992  0.3354 </r>
        <r>  0.0002  0.0001  0.0000  0.0000  0.0000  0.0000  0.0365  0.3035  0.1096 </r>
       </set>
       <set comment="band 9">
        <r>  0.0000  0.0000  0.0001  0.0001  0.2358  0.2629  0.0000  0.0000  0.0000 </r>
        <r>  0.0000  0.0000  0.0001  0.0001  0.2628  0.2358  0.0000  0.0000  0.0000 </r>
       </set>
       <set comment="band 10">
        <r>  0.0000  0.0000  0.0001  0.0001  0.2629  0.2358  0.0000  0.0000  0.0000 </r>
        <r>  0.0000  0.0000  0.0001  0.0001  0.2358  0.2628  0.0000  0.0000  0.0000 </r>
       </set>
       <set comment="band 11">
        <r>  0.0048  0.1124  0.0000  0.0000  0.0000  0.0000  0.0000  0.0127  0.0000 </r>
        <r>  0.5618  0.0010  0.0000  0.0000  0.0000  0.0000  0.0004  0.0001  0.0011 </r>
       </set>
       <set comment="band 12">
        <r>  0.5617  0.0010  0.0000  0.0000  0.0000  0.0000  0.0004  0.0001  0.0011 </r>
        <r>  0.0048  0.1124  0.0000  0.0000  0.0000  0.0000  0.0000  0.0127  0.0000 </r>
       </set>
       <set comment="band 13">
        <r>  0.0000  0.0000  0.1352  0.1416  0.0022  0.0023  0.0000  0.0000  0.0000 </r>
        <r>  0.0000  0.0000  0.1416  0.1352  0.0023  0.0022  0.0000  0.0000  0.0000 </r>
       </set>
       <set comment="band 14">
        <r>  0.0000  0.0000  0.1416  0.1352  0.0023  0.0022  0.0000  0.0000  0.0000 </r>
        <r>  0.0000  0.0000  0.1352  0.1416  0.0022  0.0023  0.0000  0.0000  0.0000 </r>
       </set>
       <set comment="band 15">
        <r>  0.0506  0.0760  0.0000  0.0000  0.0000  0.0000  0.0053  0.0336  0.0159 </r>
        <r>  0.0724  0.0532  0.0000  0.0000  0.0000  0.0000  0.0076  0.0235  0.0227 </r>
       </set>
       <set comment="band 16">
        <r>  0.0724  0.0532  0.0000  0.0000  0.0000  0.0000  0.0076  0.0235  0.0227 </r>
        <r>  0.0506  0.0760  0.0000  0.0000  0.0000  0.0000  0.0053  0.0336  0.0159 </r>
       </set>
       <set comment="band 17">
        <r>  0.0000  0.0000  0.1316  0.1753  0.0180  0.0240  0.0000  0.0000  0.0000 </r>
        <r>  0.0000  0.0000  0.1753  0.1316  0.0240  0.0180  0.0000  0.0000  0.0000 </r>
       </set>
       <set comment="band 18">
        <r>  0.0000  0.0000  0.1753  0.1316  0.0240  0.0180  0.0000  0.0000  0.0000 </r>
        <r>  0.0000  0.0000  0.1316  0.1753  0.0180  0.0240  0.0000  0.0000  0.0000 </r>
       </set>
       <set comment="band 19">
        <r>  0.0291  0.3256  0.0000  0.0000  0.0000  0.0000  0.0003  0.0186  0.0009 </r>
        <r>  0.0733  0.1292  0.0000  0.0000  0.0000  0.0000  0.0007  0.0074  0.0022 </r>
       </set>
       <set comment="band 20">
        <r>  0.0733  0.1292  0.0000  0.0000  0.0000  0.0000  0.0007  0.0074  0.0022 </r>
        <r>  0.0291  0.3256  0.0000  0.0000  0.0000  0.0000  0.0003  0.0186  0.0009 </r>
       </set>
       <set comment="band 21">
        <r>  0.0000  0.0000  0.0155  0.0235  0.0836  0.1263  0.0000  0.0000  0.0000 </r>
        <r>  0.0000  0.0000  0.0235  0.0155  0.1263  0.0836  0.0000  0.0000  0.0000 </r>
       </set>
       <set comment="band 22">
        <r>  0.0000  0.0000  0.0235  0.0155  0.1263  0.0836  0.0000  0.0000  0.0000 </r>
        <r>  0.0000  0.0000  0.0155  0.0235  0.0836  0.1263  0.0000  0.0000  0.0000 </r>
       </set>
       <set comment="band 23">
        <r>  0.0000  0.0000  0.0000  0.0000  0.0000  0.0000  0.0068  0.0000  0.0023 </r>
        <r>  0.0000  0.0000  0.0000  0.0000  0.0000  0.0000  0.2837  0.0000  0.0946 </r>
       </set>
       <set comment="band 24">
        <r>  0.0000  0.0000  0.0000  0.0000  0.0000  0.0000  0.2837  0.0000  0.0946 </r>
        <r>  0.0000  0.0000  0.0000  0.0000  0.0000  0.0000  0.0068  0.0000  0.0023 </r>
       </set>
       <set comment="band 25">
        <r>  0.0095  0.0344  0.0000  0.0000  0.0000  0.0000  0.0081  0.0010  0.0242 </r>
        <r>  0.0125  0.0261  0.0000  0.0000  0.0000  0.0000  0.0106  0.0008  0.0318 </r>
       </set>
       <set comment="band 26">
        <r>  0.0125  0.0261  0.0000  0.0000  0.0000  0.0000  0.0106  0.0008  0.0318 </r>
        <r>  0.0095  0.0344  0.0000  0.0000  0.0000  0.0000  0.0081  0.0010  0.0242 </r>
       </set>
       <set comment="band 27">
        <r>  0.0000  0.0000  0.0097  0.0078  0.0230  0.0184  0.0000  0.0000  0.0000 </r>
        <r>  0.0000  0.0000  0.0078  0.0097  0.0184  0.0230  0.0000  0.0000  0.0000 </r>
       </set>
       <set comment="band 28">
        <r>  0.0000  0.0000  0.0078  0.0097  0.0184  0.0230  0.0000  0.0000  0.0000 </r>
        <r>  0.0000  0.0000  0.0097  0.0078  0.0230  0.0184  0.0000  0.0000  0.0000 </r>
       </set>
       <set comment="band 29">
        <r>  0.0000  0.0000  0.0191  0.0085  0.1079  0.0482  0.0000  0.0000  0.0000 </r>
        <r>  0.0000  0.0000  0.0085  0.0191  0.0483  0.1079  0.0000  0.0000  0.0000 </r>
       </set>
       <set comment="band 30">
        <r>  0.0000  0.0000  0.0085  0.0191  0.0482  0.1079  0.0000  0.0000  0.0000 </r>
        <r>  0.0000  0.0000  0.0191  0.0085  0.1079  0.0483  0.0000  0.0000  0.0000 </r>
       </set>
       <set comment="band 31">
        <r>  0.0543  0.0031  0.0000  0.0000  0.0000  0.0000  0.0326  0.0383  0.0979 </r>
        <r>  0.0553  0.0031  0.0000  0.0000  0.0000  0.0000  0.0332  0.0377  0.0996 </r>
       </set>
       <set comment="band 32">
        <r>  0.0553  0.0031  0.0000  0.0000  0.0000  0.0000  0.0332  0.0377  0.0996 </r>
        <r>  0.0543  0.0031  0.0000  0.0000  0.0000  0.0000  0.0326  0.0383  0.0979 </r>
       </set>
       <set comment="band 33">
        <r>  0.0000  0.0000  0.0152  0.0966  0.0118  0.0754  0.0000  0.0000  0.0000 </r>
        <r>  0.0000  0.0000  0.0966  0.0152  0.0754  0.0118  0.0000  0.0000  0.0000 </r>
       </set>
       <set comment="band 34">
        <r>  0.0000  0.0000  0.0966  0.0151  0.0753  0.0118  0.0000  0.0000  0.0000 </r>
        <r>  0.0000  0.0000  0.0152  0.0966  0.0118  0.0754  0.0000  0.0000  0.0000 </r>
       </set>
       <set comment="band 35">
        <r>  0.0061  0.0074  0.0000  0.0000  0.0000  0.0000  0.0290  0.2051  0.0870 </r>
        <r>  0.0025  0.0185  0.0000  0.0000  0.0000  0.0000  0.0117  0.5082  0.0351 </r>
       </set>
       <set comment="band 36">
        <r>  0.0025  0.0184  0.0000  0.0000  0.0000  0.0000  0.0117  0.5082  0.0351 </r>
        <r>  0.0061  0.0074  0.0000  0.0000  0.0000  0.0000  0.0290  0.2051  0.0870 </r>
       </set>
       <set comment="band 37">
        <r>  0.0000  0.0000  0.0167  0.0388  0.0091  0.0211  0.0000  0.0000  0.0000 </r>
        <r>  0.0000  0.0000  0.0388  0.0167  0.0211  0.0091  0.0000  0.0000  0.0000 </r>
       </set>
       <set comment="band 38">
        <r>  0.0000  0.0000  0.0388  0.0167  0.0211  0.0091  0.0000  0.0000  0.0000 </r>
        <r>  0.0000  0.0000  0.0167  0.0388  0.0091  0.0211  0.0000  0.0000  0.0000 </r>
       </set>
       <set comment="band 39">
        <r>  0.0027  0.0069  0.0000  0.0000  0.0000  0.0000  0.0302  0.0118  0.0906 </r>
        <r>  0.0008  0.0235  0.0000  0.0000  0.0000  0.0000  0.0089  0.0402  0.0266 </r>
       </set>
       <set comment="band 40">
        <r>  0.0008  0.0236  0.0000  0.0000  0.0000  0.0000  0.0088  0.0402  0.0267 </r>
        <r>  0.0027  0.0070  0.0000  0.0000  0.0000  0.0000  0.0302  0.0120  0.0904 </r>
       </set>
       <set comment="band 41">
        <r>  0.1041  0.0007  0.0000  0.0000  0.0000  0.0000  0.0176  0.0005  0.0530 </r>
        <r>  0.0148  0.0050  0.0000  0.0000  0.0000  0.0000  0.0026  0.0039  0.0076 </r>
       </set>
       <set comment="band 42">
        <r>  0.0153  0.0049  0.0000  0.0000  0.0000  0.0000  0.0025  0.0039  0.0075 </r>
        <r>  0.1032  0.0008  0.0000  0.0000  0.0000  0.0000  0.0175  0.0005  0.0532 </r>
       </set>
       <set comment="band 43">
        <r>  0.0000  0.0000  0.0210  0.0106  0.0055  0.0028  0.0000  0.0000  0.0000 </r>
        <r>  0.0000  0.0000  0.0107  0.0208  0.0027  0.0055  0.0000  0.0000  0.0000 </r>
       </set>
       <set comment="band 44">
        <r>  0.0000  0.0000  0.0108  0.0206  0.0031  0.0053  0.0000  0.0000  0.0000 </r>
        <r>  0.0000  0.0000  0.0206  0.0110  0.0054  0.0028  0.0000  0.0000  0.0000 </r>
       </set>
       <set comment="band 45">
        <r>  0.0000  0.0000  0.0000  0.0000  0.0000  0.0000  0.1040  0.0000  0.0348 </r>
        <r>  0.0000  0.0000  0.0000  0.0000  0.0000  0.0000  0.2473  0.0000  0.0821 </r>
       </set>
       <set comment="band 46">
        <r>  0.0000  0.0000  0.0000  0.0000  0.0000  0.0000  0.2481  0.0000  0.0825 </r>
        <r>  0.0000  0.0000  0.0000  0.0000  0.0000  0.0000  0.1048  0.0000  0.0346 </r>
       </set>
       <set comment="band 47">
        <r>  0.0000  0.0000  0.0103  0.0094  0.0147  0.0143  0.0000  0.0000  0.0000 </r>
        <r>  0.0000  0.0000  0.0094  0.0114  0.0141  0.0160  0.0000  0.0000  0.0000 </r>
       </set>
       <set comment="band 48">
        <r>  0.0000  0.0000  0.0100  0.0110  0.0137  0.0161  0.0000  0.0000  0.0000 </r>
        <r>  0.0000  0.0000  0.0105  0.0097  0.0155  0.0135  0.0000  0.0000  0.0000 </r>
       </set>
       <set comment="band 49">
        <r>  0.0099  0.0091  0.0000  0.0000  0.0000  0.0000  0.0083  0.0979  0.0248 </r>
        <r>  0.0481  0.0018  0.0000  0.0000  0.0000  0.0000  0.0403  0.0198  0.1224 </r>
       </set>
       <set comment="band 50">
        <r>  0.0469  0.0020  0.0000  0.0000  0.0001  0.0001  0.0418  0.0201  0.1211 </r>
        <r>  0.0095  0.0095  0.0001  0.0001  0.0000  0.0001  0.0076  0.0981  0.0255 </r>
       </set>
       <set comment="band 51">
        <r>  0.0003  0.0008  0.0030  0.0019  0.0098  0.0084  0.0123  0.0000  0.0066 </r>
        <r>  0.0002  0.0005  0.0030  0.0026  0.0021  0.0072  0.0832  0.0000  0.0349 </r>
       </set>
       <set comment="band 52">
        <r>  0.0005  0.0014  0.0054  0.0056  0.0195  0.0344  0.0723  0.0001  0.0205 </r>
        <r>  0.0002  0.0028  0.0105  0.0073  0.0120  0.0106  0.0146  0.0001  0.0070 </r>
       </set>
       <set comment="band 53">
        <r>  0.0008  0.0000  0.0369  0.0051  0.0501  0.1520  0.0001  0.0008  0.0011 </r>
        <r>  0.0003  0.0014  0.0302  0.0098  0.0365  0.1882  0.0017  0.0004  0.0002 </r>
       </set>
       <set comment="band 54">
        <r>  0.0005  0.0207  0.0142  0.0349  0.0539  0.0904  0.0034  0.0036  0.0012 </r>
        <r>  0.0018  0.0018  0.0065  0.0076  0.2333  0.1158  0.0020  0.0001  0.0033 </r>
       </set>
      </set>
     </set>
    </set>
   </array>
  </projected>
 </calculation>
 <structure name="finalpos" >
  <crystal>
   <varray name="basis" >
    <v>       0.00000000       2.81650000       2.81650000 </v>
    <v>       2.81650000       0.00000000       2.81650000 </v>
    <v>       2.81650000       2.81650000       0.00000000 </v>
   </varray>
   <i name="volume">     44.68474278 </i>
   <varray name="rec_basis" >
    <v>      -0.17752530       0.17752530       0.17752530 </v>
    <v>       0.17752530      -0.17752530       0.17752530 </v>
    <v>       0.17752530       0.17752530      -0.17752530 </v>
   </varray>
  </crystal>
  <varray name="positions" >
   <v>       0.00000000       0.00000000       0.00000000 </v>
   <v>       0.25000000       0.25000000       0.25000000 </v>
  </varray>
 </structure>
</modeling>
