    2    2    1    1
  0.2779610E+02  0.4283936E-09  0.4283936E-09  0.4283936E-09  0.5000000E-15
  1.000000000000000E-004
  CAR 
 unknown system                          
     18     30     21
 
  0.0000000E+00  0.0000000E+00  0.0000000E+00  0.2915452E-02
    1      -10.388023   1.000000
    2      -10.388022   1.000000
    3      -10.388015   1.000000
    4      -10.388015   1.000000
    5       -9.595730   1.000000
    6       -9.595730   1.000000
    7       -9.511652   1.000000
    8       -9.511652   1.000000
    9       -9.511648   1.000000
   10       -9.511647   1.000000
   11       -7.371290   1.000000
   12       -7.371290   1.000000
   13        4.224130   1.000000
   14        4.224143   1.000000
   15        4.229004   1.000000
   16        4.229019   1.000000
   17        4.564734   0.529889
   18        4.564760   0.528398
   19        4.564760   0.515835
   20        4.564761   0.425878
   21        8.408616   0.000000
 
  0.1428571E+00  0.0000000E+00  0.0000000E+00  0.1166181E-01
    1      -10.392766   1.000000
    2      -10.392766   1.000000
    3      -10.390064   1.000000
    4      -10.382824   1.000000
    5       -9.600528   1.000000
    6       -9.600527   1.000000
    7       -9.521109   1.000000
    8       -9.521109   1.000000
    9       -9.510219   1.000000
   10       -9.501288   1.000000
   11       -7.163028   1.000000
   12       -7.163028   1.000000
   13        2.296688   1.000000
   14        2.296688   1.000000
   15        4.092350   1.000000
   16        4.092351   1.000000
   17        4.321338   1.000000
   18        4.331800   1.000000
   19        5.614316  -0.000000
   20        5.614317  -0.000000
   21        8.542987   0.000000
 
  0.2857143E+00  0.0000000E+00  0.0000000E+00  0.1166181E-01
    1      -10.404510   1.000000
    2      -10.404510   1.000000
    3      -10.387671   1.000000
    4      -10.378704   1.000000
    5       -9.609934   1.000000
    6       -9.609934   1.000000
    7       -9.537359   1.000000
    8       -9.537358   1.000000
    9       -9.497494   1.000000
   10       -9.486397   1.000000
   11       -6.613077   1.000000
   12       -6.613077   1.000000
   13        0.297607   1.000000
   14        0.297607   1.000000
   15        3.661331   1.000000
   16        3.661331   1.000000
   17        3.896801   1.000000
   18        3.908050   1.000000
   19        5.625760  -0.000000
   20        5.625760  -0.000000
   21        9.103744   0.000000
 
  0.4285714E+00  0.0000000E+00  0.0000000E+00  0.1166181E-01
    1      -10.415022   1.000000
    2      -10.415021   1.000000
    3      -10.382859   1.000000
    4      -10.378891   1.000000
    5       -9.616099   1.000000
    6       -9.616099   1.000000
    7       -9.546754   1.000000
    8       -9.546754   1.000000
    9       -9.482884   1.000000
   10       -9.477960   1.000000
   11       -6.022283   1.000000
   12       -6.022283   1.000000
   13       -1.076344   1.000000
   14       -1.076344   1.000000
   15        3.383282   1.000000
   16        3.383282   1.000000
   17        3.626019   1.000000
   18        3.630654   1.000000
   19        5.423948  -0.000000
   20        5.423948  -0.000000
   21        9.070746   0.000000
 
 -0.4285714E+00  0.0000000E+00  0.0000000E+00  0.1166181E-01
    1      -10.415022   1.000000
    2      -10.415021   1.000000
    3      -10.382859   1.000000
    4      -10.378891   1.000000
    5       -9.616099   1.000000
    6       -9.616099   1.000000
    7       -9.546754   1.000000
    8       -9.546754   1.000000
    9       -9.482884   1.000000
   10       -9.477960   1.000000
   11       -6.022283   1.000000
   12       -6.022283   1.000000
   13       -1.076344   1.000000
   14       -1.076344   1.000000
   15        3.383281   1.000000
   16        3.383282   1.000000
   17        3.626019   1.000000
   18        3.630654   1.000000
   19        5.423948  -0.000000
   20        5.423948  -0.000000
   21        9.115570   0.000000
 
 -0.2857143E+00  0.0000000E+00  0.0000000E+00  0.1166181E-01
    1      -10.404510   1.000000
    2      -10.404510   1.000000
    3      -10.387671   1.000000
    4      -10.378704   1.000000
    5       -9.609934   1.000000
    6       -9.609934   1.000000
    7       -9.537359   1.000000
    8       -9.537358   1.000000
    9       -9.497494   1.000000
   10       -9.486398   1.000000
   11       -6.613077   1.000000
   12       -6.613077   1.000000
   13        0.297607   1.000000
   14        0.297607   1.000000
   15        3.661331   1.000000
   16        3.661331   1.000000
   17        3.896801   1.000000
   18        3.908050   1.000000
   19        5.625760  -0.000000
   20        5.625760  -0.000000
   21        9.085509   0.000000
 
 -0.1428571E+00  0.0000000E+00  0.0000000E+00  0.1166181E-01
    1      -10.392766   1.000000
    2      -10.392766   1.000000
    3      -10.390064   1.000000
    4      -10.382824   1.000000
    5       -9.600528   1.000000
    6       -9.600527   1.000000
    7       -9.521109   1.000000
    8       -9.521109   1.000000
    9       -9.510220   1.000000
   10       -9.501288   1.000000
   11       -7.163028   1.000000
   12       -7.163028   1.000000
   13        2.296688   1.000000
   14        2.296688   1.000000
   15        4.092350   1.000000
   16        4.092350   1.000000
   17        4.321338   1.000000
   18        4.331800   1.000000
   19        5.614316  -0.000000
   20        5.614316  -0.000000
   21        8.590177   0.000000
 
  0.1428571E+00  0.1428571E+00  0.0000000E+00  0.1749271E-01
    1      -10.399358   1.000000
    2      -10.399356   1.000000
    3      -10.380804   1.000000
    4      -10.380802   1.000000
    5       -9.604004   1.000000
    6       -9.604004   1.000000
    7       -9.515392   1.000000
    8       -9.515388   1.000000
    9       -9.509656   1.000000
   10       -9.509652   1.000000
   11       -7.094397   1.000000
   12       -7.094397   1.000000
   13        2.230631   1.000000
   14        2.230631   1.000000
   15        3.728181   1.000000
   16        3.728181   1.000000
   17        3.866876   1.000000
   18        3.866877   1.000000
   19        6.390248   0.000000
   20        7.011683   0.000000
   21        7.516627   0.000000
 
  0.2857143E+00  0.1428571E+00  0.0000000E+00  0.3498542E-01
    1      -10.419497   1.000000
    2      -10.402671   1.000000
    3      -10.378929   1.000000
    4      -10.371495   1.000000
    5       -9.631379   1.000000
    6       -9.597731   1.000000
    7       -9.527426   1.000000
    8       -9.521751   1.000000
    9       -9.501309   1.000000
   10       -9.495569   1.000000
   11       -6.659575   1.000000
   12       -6.653462   1.000000
   13        0.748151   1.000000
   14        0.750256   1.000000
   15        3.185206   1.000000
   16        3.211832   1.000000
   17        3.375101   1.000000
   18        3.380590   1.000000
   19        6.748193   0.000000
   20        6.748428   0.000000
   21        7.791159   0.000000
 
  0.4285714E+00  0.1428571E+00  0.0000000E+00  0.3498542E-01
    1      -10.439738   1.000000
    2      -10.405160   1.000000
    3      -10.375784   1.000000
    4      -10.365950   1.000000
    5       -9.657293   1.000000
    6       -9.586259   1.000000
    7       -9.542414   1.000000
    8       -9.529846   1.000000
    9       -9.486662   1.000000
   10       -9.483993   1.000000
   11       -6.053613   1.000000
   12       -6.044469   1.000000
   13       -0.718414   1.000000
   14       -0.701641   1.000000
   15        2.616725   1.000000
   16        2.641859   1.000000
   17        3.139476   1.000000
   18        3.141646   1.000000
   19        6.548903   0.000000
   20        6.555015   0.000000
   21        8.572192   0.000000
 
 -0.4285714E+00  0.1428571E+00  0.0000000E+00  0.3498542E-01
    1      -10.445926   1.000000
    2      -10.406516   1.000000
    3      -10.372982   1.000000
    4      -10.365246   1.000000
    5       -9.665597   1.000000
    6       -9.577553   1.000000
    7       -9.552605   1.000000
    8       -9.532045   1.000000
    9       -9.482035   1.000000
   10       -9.480036   1.000000
   11       -5.809179   1.000000
   12       -5.799840   1.000000
   13       -1.193530   1.000000
   14       -1.168850   1.000000
   15        2.299080   1.000000
   16        2.315076   1.000000
   17        3.260030   1.000000
   18        3.267352   1.000000
   19        6.482328   0.000000
   20        6.483771   0.000000
   21        8.771892   0.000000
 
 -0.2857143E+00  0.1428571E+00  0.0000000E+00  0.3498542E-01
    1      -10.433655   1.000000
    2      -10.404838   1.000000
    3      -10.373232   1.000000
    4      -10.369751   1.000000
    5       -9.653357   1.000000
    6       -9.581509   1.000000
    7       -9.547384   1.000000
    8       -9.528135   1.000000
    9       -9.491002   1.000000
   10       -9.485371   1.000000
   11       -6.255945   1.000000
   12       -6.245049   1.000000
   13       -0.289649   1.000000
   14       -0.271250   1.000000
   15        2.395805   1.000000
   16        2.408816   1.000000
   17        3.665004   1.000000
   18        3.677375   1.000000
   19        6.575847   0.000000
   20        6.590182   0.000000
   21        9.104441   0.000000
 
 -0.1428571E+00  0.1428571E+00  0.0000000E+00  0.3498542E-01
    1      -10.410397   1.000000
    2      -10.399870   1.000000
    3      -10.379550   1.000000
    4      -10.377552   1.000000
    5       -9.625111   1.000000
    6       -9.591558   1.000000
    7       -9.532876   1.000000
    8       -9.522207   1.000000
    9       -9.503870   1.000000
   10       -9.495885   1.000000
   11       -6.842840   1.000000
   12       -6.835791   1.000000
   13        1.202240   1.000000
   14        1.204703   1.000000
   15        3.076435   1.000000
   16        3.096988   1.000000
   17        4.127084   1.000000
   18        4.142232   1.000000
   19        6.417018   0.000000
   20        6.419545   0.000000
   21        8.612595   0.000000
 
  0.2857143E+00  0.2857143E+00  0.0000000E+00  0.1749271E-01
    1      -10.423990   1.000000
    2      -10.423989   1.000000
    3      -10.366559   1.000000
    4      -10.366559   1.000000
    5       -9.625877   1.000000
    6       -9.625877   1.000000
    7       -9.508884   1.000000
    8       -9.508883   1.000000
    9       -9.501841   1.000000
   10       -9.501840   1.000000
   11       -6.361174   1.000000
   12       -6.361174   1.000000
   13        0.305051   1.000000
   14        0.305051   1.000000
   15        2.779618   1.000000
   16        2.779618   1.000000
   17        2.840946   1.000000
   18        2.840946   1.000000
   19        6.513911   0.000000
   20        6.515300   0.000000
   21        7.199044   0.000000
 
  0.4285714E+00  0.2857143E+00  0.0000000E+00  0.3498542E-01
    1      -10.451379   1.000000
    2      -10.418536   1.000000
    3      -10.364612   1.000000
    4      -10.355697   1.000000
    5       -9.666347   1.000000
    6       -9.602849   1.000000
    7       -9.514787   1.000000
    8       -9.511034   1.000000
    9       -9.495739   1.000000
   10       -9.485580   1.000000
   11       -5.857980   1.000000
   12       -5.850639   1.000000
   13       -0.648688   1.000000
   14       -0.630366   1.000000
   15        2.066617   1.000000
   16        2.090216   1.000000
   17        2.561574   1.000000
   18        2.562814   1.000000
   19        6.577862   0.000000
   20        6.600904   0.000000
   21        7.576720   0.000000
 
 -0.4285714E+00  0.2857143E+00  0.0000000E+00  0.3498542E-01
    1      -10.465895   1.000000
    2      -10.412278   1.000000
    3      -10.364152   1.000000
    4      -10.347711   1.000000
    5       -9.692896   1.000000
    6       -9.580936   1.000000
    7       -9.525547   1.000000
    8       -9.518302   1.000000
    9       -9.489215   1.000000
   10       -9.479941   1.000000
   11       -5.520220   1.000000
   12       -5.511505   1.000000
   13       -1.171099   1.000000
   14       -1.125363   1.000000
   15        1.337628   1.000000
   16        1.347862   1.000000
   17        2.682705   1.000000
   18        2.687961   1.000000
   19        6.702608   0.000000
   20        6.705496   0.000000
   21        9.054301   0.000000
 
 -0.2857143E+00  0.2857143E+00  0.0000000E+00  0.3498542E-01
    1      -10.458987   1.000000
    2      -10.408729   1.000000
    3      -10.366941   1.000000
    4      -10.350739   1.000000
    5       -9.688410   1.000000
    6       -9.568393   1.000000
    7       -9.545473   1.000000
    8       -9.520768   1.000000
    9       -9.486491   1.000000
   10       -9.483262   1.000000
   11       -5.750347   1.000000
   12       -5.737895   1.000000
   13       -0.861818   1.000000
   14       -0.814703   1.000000
   15        1.320566   1.000000
   16        1.321993   1.000000
   17        3.132383   1.000000
   18        3.141815   1.000000
   19        6.973986   0.000000
   20        6.997957   0.000000
   21        9.632710   0.000000
 
 -0.1428571E+00  0.2857143E+00  0.0000000E+00  0.3498542E-01
    1      -10.433655   1.000000
    2      -10.404838   1.000000
    3      -10.373232   1.000000
    4      -10.369751   1.000000
    5       -9.653357   1.000000
    6       -9.581509   1.000000
    7       -9.547384   1.000000
    8       -9.528135   1.000000
    9       -9.491002   1.000000
   10       -9.485371   1.000000
   11       -6.255945   1.000000
   12       -6.245049   1.000000
   13       -0.289649   1.000000
   14       -0.271250   1.000000
   15        2.395805   1.000000
   16        2.408816   1.000000
   17        3.665004   1.000000
   18        3.677375   1.000000
   19        6.575909   0.000000
   20        6.590121   0.000000
   21        9.303813   0.000000
 
  0.4285714E+00  0.4285714E+00  0.0000000E+00  0.1749271E-01
    1      -10.444161   1.000000
    2      -10.444161   1.000000
    3      -10.355887   1.000000
    4      -10.355887   1.000000
    5       -9.640348   1.000000
    6       -9.640348   1.000000
    7       -9.507065   1.000000
    8       -9.507065   1.000000
    9       -9.484159   1.000000
   10       -9.484159   1.000000
   11       -5.538295   1.000000
   12       -5.538295   1.000000
   13       -1.125103   1.000000
   14       -1.125103   1.000000
   15        2.211173   1.000000
   16        2.211173   1.000000
   17        2.230097   1.000000
   18        2.230097   1.000000
   19        6.051473   0.000000
   20        6.060509   0.000000
   21        6.631877   0.000000
 
 -0.4285714E+00  0.4285714E+00  0.0000000E+00  0.3498542E-01
    1      -10.464897   1.000000
    2      -10.426062   1.000000
    3      -10.358422   1.000000
    4      -10.348879   1.000000
    5       -9.679222   1.000000
    6       -9.605534   1.000000
    7       -9.511804   1.000000
    8       -9.499350   1.000000
    9       -9.497372   1.000000
   10       -9.476720   1.000000
   11       -5.370484   1.000000
   12       -5.366357   1.000000
   13       -1.328483   1.000000
   14       -1.298604   1.000000
   15        1.632806   1.000000
   16        1.650503   1.000000
   17        2.270067   1.000000
   18        2.272035   1.000000
   19        6.302355   0.000000
   20        6.328073   0.000000
   21        7.323224   0.000000
 
 -0.2857143E+00  0.4285714E+00  0.0000000E+00  0.3498542E-01
    1      -10.465895   1.000000
    2      -10.412278   1.000000
    3      -10.364152   1.000000
    4      -10.347711   1.000000
    5       -9.692896   1.000000
    6       -9.580936   1.000000
    7       -9.525547   1.000000
    8       -9.518302   1.000000
    9       -9.489215   1.000000
   10       -9.479941   1.000000
   11       -5.520220   1.000000
   12       -5.511505   1.000000
   13       -1.171099   1.000000
   14       -1.125363   1.000000
   15        1.337628   1.000000
   16        1.347862   1.000000
   17        2.682705   1.000000
   18        2.687961   1.000000
   19        6.703869   0.000000
   20        6.704247   0.000000
   21        9.376201   0.000000
 
 -0.1428571E+00  0.4285714E+00  0.0000000E+00  0.3498542E-01
    1      -10.445926   1.000000
    2      -10.406516   1.000000
    3      -10.372982   1.000000
    4      -10.365246   1.000000
    5       -9.665597   1.000000
    6       -9.577553   1.000000
    7       -9.552605   1.000000
    8       -9.532045   1.000000
    9       -9.482035   1.000000
   10       -9.480036   1.000000
   11       -5.809179   1.000000
   12       -5.799840   1.000000
   13       -1.193530   1.000000
   14       -1.168850   1.000000
   15        2.299080   1.000000
   16        2.315076   1.000000
   17        3.260030   1.000000
   18        3.267352   1.000000
   19        6.482370   0.000000
   20        6.483728   0.000000
   21        8.772802   0.000000
 
 -0.2857143E+00 -0.4285714E+00  0.0000000E+00  0.3498542E-01
    1      -10.451379   1.000000
    2      -10.418536   1.000000
    3      -10.364612   1.000000
    4      -10.355697   1.000000
    5       -9.666347   1.000000
    6       -9.602849   1.000000
    7       -9.514787   1.000000
    8       -9.511034   1.000000
    9       -9.495739   1.000000
   10       -9.485580   1.000000
   11       -5.857980   1.000000
   12       -5.850639   1.000000
   13       -0.648688   1.000000
   14       -0.630366   1.000000
   15        2.066617   1.000000
   16        2.090216   1.000000
   17        2.561574   1.000000
   18        2.562814   1.000000
   19        6.587645   0.000000
   20        6.589824   0.000000
   21        7.564061   0.000000
 
 -0.1428571E+00 -0.4285714E+00  0.0000000E+00  0.3498542E-01
    1      -10.439738   1.000000
    2      -10.405160   1.000000
    3      -10.375784   1.000000
    4      -10.365950   1.000000
    5       -9.657293   1.000000
    6       -9.586259   1.000000
    7       -9.542414   1.000000
    8       -9.529846   1.000000
    9       -9.486662   1.000000
   10       -9.483993   1.000000
   11       -6.053613   1.000000
   12       -6.044469   1.000000
   13       -0.718414   1.000000
   14       -0.701641   1.000000
   15        2.616725   1.000000
   16        2.641859   1.000000
   17        3.139476   1.000000
   18        3.141646   1.000000
   19        6.548878   0.000000
   20        6.555042   0.000000
   21        8.569279   0.000000
 
 -0.1428571E+00 -0.2857143E+00  0.0000000E+00  0.3498542E-01
    1      -10.419496   1.000000
    2      -10.402671   1.000000
    3      -10.378929   1.000000
    4      -10.371495   1.000000
    5       -9.631379   1.000000
    6       -9.597731   1.000000
    7       -9.527426   1.000000
    8       -9.521751   1.000000
    9       -9.501309   1.000000
   10       -9.495569   1.000000
   11       -6.659575   1.000000
   12       -6.653462   1.000000
   13        0.748151   1.000000
   14        0.750256   1.000000
   15        3.185206   1.000000
   16        3.211831   1.000000
   17        3.375101   1.000000
   18        3.380591   1.000000
   19        6.748243   0.000000
   20        6.876870   0.000000
   21        7.781106   0.000000
 
  0.4285714E+00  0.2857143E+00  0.1428571E+00  0.6997085E-01
    1      -10.442556   1.000000
    2      -10.407597   1.000000
    3      -10.370600   1.000000
    4      -10.361241   1.000000
    5       -9.662918   1.000000
    6       -9.587434   1.000000
    7       -9.530924   1.000000
    8       -9.518818   1.000000
    9       -9.492472   1.000000
   10       -9.490932   1.000000
   11       -6.181760   1.000000
   12       -6.170801   1.000000
   13       -0.161246   1.000000
   14       -0.140906   1.000000
   15        2.125116   1.000000
   16        2.136084   1.000000
   17        3.088654   1.000000
   18        3.117578   1.000000
   19        7.447114   0.000000
   20        7.696913   0.000000
   21        7.832822   0.000000
 
 -0.4285714E+00  0.2857143E+00  0.1428571E+00  0.6997085E-01
    1      -10.461233   1.000000
    2      -10.408102   1.000000
    3      -10.366110   1.000000
    4      -10.352292   1.000000
    5       -9.689287   1.000000
    6       -9.571138   1.000000
    7       -9.540046   1.000000
    8       -9.520105   1.000000
    9       -9.486055   1.000000
   10       -9.483267   1.000000
   11       -5.680172   1.000000
   12       -5.669427   1.000000
   13       -1.012847   1.000000
   14       -0.972582   1.000000
   15        1.592570   1.000000
   16        1.601605   1.000000
   17        2.691307   1.000000
   18        2.721332   1.000000
   19        7.491320   0.000000
   20        7.518783   0.000000
   21        8.497588   0.000000
 
 -0.2857143E+00  0.2857143E+00  0.1428571E+00  0.6997085E-01
    1      -10.461232   1.000000
    2      -10.408102   1.000000
    3      -10.366111   1.000000
    4      -10.352292   1.000000
    5       -9.689286   1.000000
    6       -9.571137   1.000000
    7       -9.540049   1.000000
    8       -9.520106   1.000000
    9       -9.486056   1.000000
   10       -9.483264   1.000000
   11       -5.680172   1.000000
   12       -5.669427   1.000000
   13       -1.012847   1.000000
   14       -0.972582   1.000000
   15        1.592569   1.000000
   16        1.601604   1.000000
   17        2.691308   1.000000
   18        2.721332   1.000000
   19        7.489083   0.000000
   20        7.506392   0.000000
   21        8.493167   0.000000
 
 -0.4285714E+00  0.4285714E+00  0.1428571E+00  0.6997085E-01
    1      -10.467550   1.000000
    2      -10.416484   1.000000
    3      -10.359557   1.000000
    4      -10.349366   1.000000
    5       -9.690779   1.000000
    6       -9.588659   1.000000
    7       -9.515408   1.000000
    8       -9.509570   1.000000
    9       -9.494792   1.000000
   10       -9.479582   1.000000
   11       -5.478904   1.000000
   12       -5.472051   1.000000
   13       -1.141646   1.000000
   14       -1.104632   1.000000
   15        1.694034   1.000000
   16        1.696575   1.000000
   17        2.029092   1.000000
   18        2.060159   1.000000
   19        7.250252   0.000000
   20        7.378799   0.000000
   21        7.585369   0.000000
 
 -0.2857143E+00  0.4285714E+00  0.1428571E+00  0.6997085E-01
    1      -10.473763   1.000000
    2      -10.410289   1.000000
    3      -10.359533   1.000000
    4      -10.345428   1.000000
    5       -9.706357   1.000000
    6       -9.568306   1.000000
    7       -9.529136   1.000000
    8       -9.513970   1.000000
    9       -9.488691   1.000000
   10       -9.481569   1.000000
   11       -5.388377   1.000000
   12       -5.381043   1.000000
   13       -1.216665   1.000000
   14       -1.162016   1.000000
   15        1.248761   1.000000
   16        1.252772   1.000000
   17        2.103849   1.000000
   18        2.133655   1.000000
   19        7.641794   0.000000
   20        7.649769   0.000000
   21        9.039866   0.000000
