       N       E                     dE             d eps       ncg     rms          ort
DAV:   1     0.190950092185E+03    0.19095E+03   -0.66057E+03   630   0.162E+03
DAV:   2     0.564733909309E+02   -0.13448E+03   -0.13161E+03   630   0.457E+02
DAV:   3     0.130589985515E+02   -0.43414E+02   -0.42018E+02   630   0.277E+02
DAV:   4    -0.390121674200E+01   -0.16960E+02   -0.16623E+02   630   0.160E+02
DAV:   5    -0.688654380384E+01   -0.29853E+01   -0.29435E+01   630   0.602E+01
SDA:   6    -0.660417988502E+01    0.28236E+00   -0.83690E+00   630   0.209E+01 0.000E+00
DMP:   7    -0.717053014898E+01   -0.56635E+00   -0.50485E+00   630   0.982E+00 0.733E+00
DMP:   8    -0.748929418639E+01   -0.31876E+00   -0.16712E+00   630   0.296E+00 0.319E+00
DMP:   9    -0.760728124148E+01   -0.11799E+00   -0.70673E-01   630   0.116E+00 0.158E+00
DMP:  10    -0.765920808953E+01   -0.51927E-01   -0.40366E-01   630   0.733E-01 0.724E-01
DMP:  11    -0.769014166348E+01   -0.30934E-01   -0.18606E-01   630   0.282E-01 0.479E-01
DMP:  12    -0.770509159215E+01   -0.14950E-01   -0.91822E-02   630   0.134E-01 0.251E-01
DMP:  13    -0.771247652814E+01   -0.73849E-02   -0.45553E-02   630   0.664E-02 0.124E-01
DMP:  14    -0.771630607862E+01   -0.38296E-02   -0.23623E-02   630   0.319E-02 0.711E-02
DMP:  15    -0.771829419223E+01   -0.19881E-02   -0.12397E-02   630   0.167E-02 0.375E-02
DMP:  16    -0.771933674160E+01   -0.10425E-02   -0.60745E-03   630   0.761E-03 0.198E-02
DMP:  17    -0.771987417931E+01   -0.53744E-03   -0.33660E-03   630   0.409E-03 0.113E-02
DMP:  18    -0.772017197992E+01   -0.29780E-03   -0.17568E-03   630   0.203E-03 0.618E-03
DMP:  19    -0.772032413469E+01   -0.15215E-03   -0.86602E-04   630   0.992E-04 0.307E-03
DMP:  20    -0.772039212564E+01   -0.67991E-04   -0.31287E-04   630   0.362E-04 0.110E-03
DMP:  21    -0.772042683819E+01   -0.34713E-04   -0.30798E-04   630   0.329E-04 0.115E-03
DMP:  22    -0.772045985176E+01   -0.33014E-04   -0.20532E-04   630   0.210E-04 0.794E-04
DMP:  23    -0.772047753493E+01   -0.17683E-04   -0.88671E-05   630   0.884E-05 0.349E-04
DMP:  24    -0.772048461799E+01   -0.70831E-05   -0.33467E-05   630   0.328E-05 0.133E-04
   1 F= -.77204846E+01 E0= -.77204574E+01  d E =-.816011E-04  mag=    -0.0000    -0.0000    -0.0000
