 vasp.5.4.4.18Apr17-6-g9f103f2a35 (build Sep 01 2023 15:53:54) complex          
  
 executed on             LinuxIFC date 2023.11.23  02:36:44
 running on   54 total cores
 distrk:  each k-point on    9 cores,    6 groups
 distr:  one band on NCORES_PER_BAND=   3 cores,    3 groups


--------------------------------------------------------------------------------------------------------


 INCAR:
 POTCAR:    PAW_PBE In_d 06Sep2000                
 POTCAR:    PAW_PBE As 22Sep2009                  

 ----------------------------------------------------------------------------- 
|                                                                             |
|           W    W    AA    RRRRR   N    N  II  N    N   GGGG   !!!           |
|           W    W   A  A   R    R  NN   N  II  NN   N  G    G  !!!           |
|           W    W  A    A  R    R  N N  N  II  N N  N  G       !!!           |
|           W WW W  AAAAAA  RRRRR   N  N N  II  N  N N  G  GGG   !            |
|           WW  WW  A    A  R   R   N   NN  II  N   NN  G    G                |
|           W    W  A    A  R    R  N    N  II  N    N   GGGG   !!!           |
|                                                                             |
|      For optimal performance we recommend to set                            |
|        NCORE= 4 - approx SQRT( number of cores)                             |
|      NCORE specifies how many cores store one orbital (NPAR=cpu/NCORE).     |
|      This setting can  greatly improve the performance of VASP for DFT.     |
|      The default,   NCORE=1            might be grossly inefficient         |
|      on modern multi-core architectures or massively parallel machines.     |
|      Do your own testing !!!!                                               |
|      Unfortunately you need to use the default for GW and RPA calculations. |
|      (for HF NCORE is supported but not extensively tested yet)             |
|                                                                             |
 ----------------------------------------------------------------------------- 


 ----------------------------------------------------------------------------- 
|                                                                             |
|           W    W    AA    RRRRR   N    N  II  N    N   GGGG   !!!           |
|           W    W   A  A   R    R  NN   N  II  NN   N  G    G  !!!           |
|           W    W  A    A  R    R  N N  N  II  N N  N  G       !!!           |
|           W WW W  AAAAAA  RRRRR   N  N N  II  N  N N  G  GGG   !            |
|           WW  WW  A    A  R   R   N   NN  II  N   NN  G    G                |
|           W    W  A    A  R    R  N    N  II  N    N   GGGG   !!!           |
|                                                                             |
|      You have enabled k-point parallelism (KPAR>1).                         |
|      This developmental code was originally  written by Paul Kent at ORNL,  |
|      and carefully double checked in Vienna.                                |
|      GW as well as linear response parallelism added by Martijn Marsman     |
|      and Georg Kresse.                                                      |
|      Carefully verify results versus KPAR=1.                                |
|      Report problems to Paul Kent and Vienna.                               |
|                                                                             |
 ----------------------------------------------------------------------------- 

 POTCAR:    PAW_PBE In_d 06Sep2000                
   VRHFIN =In: s2p1                                                             
   LEXCH  = PE                                                                  
   EATOM  =  1576.8302 eV,  115.8937 Ry                                         
                                                                                
   TITEL  = PAW_PBE In_d 06Sep2000                                              
   LULTRA =        F    use ultrasoft PP ?                                      
   IUNSCR =        1    unscreen: 0-lin 1-nonlin 2-no                           
   RPACOR =    2.200    partial core radius                                     
   POMASS =  114.820; ZVAL   =   13.000    mass and valenz                      
   RCORE  =    2.500    outmost cutoff radius                                   
   RWIGS  =    3.170; RWIGS  =    1.677    wigner-seitz radius (au A)           
   ENMAX  =  239.211; ENMIN  =  179.409 eV                                      
   ICORE  =        3    local potential                                         
   LCOR   =        T    correct aug charges                                     
   LPAW   =        T    paw PP                                                  
   EAUG   =  449.704                                                            
   DEXC   =    0.000                                                            
   RMAX   =    2.552    core radius for proj-oper                               
   RAUG   =    1.300    factor for augmentation sphere                          
   RDEP   =    2.630    radius for radial grids                                 
   RDEPT  =    2.033    core radius for aug-charge                              
                                                                                
   Atomic configuration                                                         
   12 entries                                                                   
     n  l   j            E        occ.                                          
     1  0  0.50    -27747.9169   2.0000                                         
     2  0  0.50     -4154.4438   2.0000                                         
     2  1  1.50     -3728.4305   6.0000                                         
     3  0  0.50      -788.3680   2.0000                                         
     3  1  1.50      -648.9215   6.0000                                         
     3  2  2.50      -432.5893  10.0000                                         
     4  0  0.50      -119.6363   2.0000                                         
     4  1  1.50       -78.1086   6.0000                                         
     4  2  2.50       -18.6227  10.0000                                         
     5  0  0.50        -8.2107   2.0000                                         
     5  1  0.50        -2.5185   1.0000                                         
     4  3  2.50        -2.7212   0.0000                                         
   Description                                                                  
     l       E           TYP  RCUT    TYP  RCUT                                 
     2    -18.6226981     23  2.500                                             
     2     -1.3605826     23  2.500                                             
     0     -8.2107305     23  2.500                                             
     0     -6.1485975     23  2.500                                             
     1     -2.5184867     23  2.500                                             
     1      3.2427302     23  2.500                                             
     3     -1.3605826      7  2.500                                             
  local pseudopotential read in
  partial core-charges read in
  partial kinetic energy density read in
  atomic valenz-charges read in
  non local Contribution for L=           2  read in
    real space projection operators read in
  non local Contribution for L=           2  read in
    real space projection operators read in
  non local Contribution for L=           0  read in
    real space projection operators read in
  non local Contribution for L=           0  read in
    real space projection operators read in
  non local Contribution for L=           1  read in
    real space projection operators read in
  non local Contribution for L=           1  read in
    real space projection operators read in
    PAW grid and wavefunctions read in
 
   number of l-projection  operators is LMAX  =           6
   number of lm-projection operators is LMMAX =          18
 
 POTCAR:    PAW_PBE As 22Sep2009                  
   VRHFIN =As: s2p3                                                             
   LEXCH  = PE                                                                  
   EATOM  =   170.1867 eV,   12.5084 Ry                                         
                                                                                
   TITEL  = PAW_PBE As 22Sep2009                                                
   LULTRA =        F    use ultrasoft PP ?                                      
   IUNSCR =        1    unscreen: 0-lin 1-nonlin 2-no                           
   RPACOR =    1.900    partial core radius                                     
   POMASS =   74.922; ZVAL   =    5.000    mass and valenz                      
   RCORE  =    2.100    outmost cutoff radius                                   
   RWIGS  =    2.300; RWIGS  =    1.217    wigner-seitz radius (au A)           
   ENMAX  =  208.702; ENMIN  =  156.526 eV                                      
   ICORE  =        3    local potential                                         
   LCOR   =        T    correct aug charges                                     
   LPAW   =        T    paw PP                                                  
   EAUG   =  462.758                                                            
   DEXC   =    0.000                                                            
   RMAX   =    2.144    core radius for proj-oper                               
   RAUG   =    1.300    factor for augmentation sphere                          
   RDEP   =    2.140    radius for radial grids                                 
   RDEPT  =    1.956    core radius for aug-charge                              
                                                                                
   Atomic configuration                                                         
   10 entries                                                                   
     n  l   j            E        occ.                                          
     1  0  0.50    -11718.0418   2.0000                                         
     2  0  0.50     -1486.5454   2.0000                                         
     2  1  1.50     -1303.3889   6.0000                                         
     3  0  0.50      -190.2849   2.0000                                         
     3  1  1.50      -133.6555   6.0000                                         
     3  2  2.50       -40.6443  10.0000                                         
     4  0  0.50       -14.4936   2.0000                                         
     4  1  0.50        -5.1947   3.0000                                         
     4  2  1.50        -5.4423   0.0000                                         
     4  3  2.50        -5.4423   0.0000                                         
   Description                                                                  
     l       E           TYP  RCUT    TYP  RCUT                                 
     0    -14.4935570     23  2.100                                             
     0    -11.9212055     23  2.100                                             
     1     -5.1947127     23  2.100                                             
     1     27.2116520     23  2.100                                             
     2     -5.4423304     23  2.100                                             
     3     -1.3605826      7  2.100                                             
  local pseudopotential read in
  partial core-charges read in
  partial kinetic energy density read in
  atomic valenz-charges read in
  non local Contribution for L=           0  read in
    real space projection operators read in
  non local Contribution for L=           0  read in
    real space projection operators read in
  non local Contribution for L=           1  read in
    real space projection operators read in
  non local Contribution for L=           1  read in
    real space projection operators read in
  non local Contribution for L=           2  read in
    real space projection operators read in
    PAW grid and wavefunctions read in
 
   number of l-projection  operators is LMAX  =           5
   number of lm-projection operators is LMMAX =          13
 
  PAW_PBE In_d 06Sep2000                :
 energy of atom  1       EATOM=-1576.8302
 kinetic energy error for atom=    0.0052 (will be added to EATOM!!)
  PAW_PBE As 22Sep2009                  :
 energy of atom  2       EATOM= -170.1867
 kinetic energy error for atom=    0.0013 (will be added to EATOM!!)
 
 
 POSCAR: In As                                   
  positions in direct lattice
  No initial velocities read in
 exchange correlation table for  LEXCH =        8
   RHO(1)=    0.500       N(1)  =     2000
   RHO(2)=  100.500       N(2)  =     4000
 


--------------------------------------------------------------------------------------------------------


 ion  position               nearest neighbor table
   1  0.000  0.000  0.000-   2 2.62   2 2.62   2 2.62   2 2.62
   2  0.750  0.750  0.750-   1 2.62   1 2.62   1 2.62   1 2.62
 
  LATTYP: Found a face centered cubic cell.
 ALAT       =     6.0584000000
  
  Lattice vectors:
  
 A1 = (   0.0000000000,   3.0292000000,   3.0292000000)
 A2 = (   3.0292000000,   0.0000000000,   3.0292000000)
 A3 = (   3.0292000000,   3.0292000000,   0.0000000000)


Analysis of symmetry for initial positions (statically):
=====================================================================
 Subroutine PRICEL returns:
 Original cell was already a primitive cell.
 

 Routine SETGRP: Setting up the symmetry group for a 
 face centered cubic supercell.


 Subroutine GETGRP returns: Found 24 space group operations
 (whereof 24 operations were pure point group operations)
 out of a pool of 48 trial point group operations.


The static configuration has the point symmetry T_d .


Analysis of symmetry for dynamics (positions and initial velocities):
=====================================================================
 Subroutine PRICEL returns:
 Original cell was already a primitive cell.
 

 Routine SETGRP: Setting up the symmetry group for a 
 face centered cubic supercell.


 Subroutine GETGRP returns: Found 24 space group operations
 (whereof 24 operations were pure point group operations)
 out of a pool of 48 trial point group operations.


The dynamic configuration has the point symmetry T_d .


Analysis of structural, dynamic, and magnetic symmetry:
=====================================================================
 Subroutine PRICEL returns:
 Original cell was already a primitive cell.
 

 Routine SETGRP: Setting up the symmetry group for a 
 face centered cubic supercell.


 Subroutine GETGRP returns: Found 24 space group operations
 (whereof 24 operations were pure point group operations)
 out of a pool of 48 trial point group operations.


The (compounded) configuration has the point symmetry T_d .


 Subroutine INISYM returns: Found 24 space group operations
 (whereof 24 operations are pure point group operations),
 and found     1 'primitive' translations

 
 
 KPOINTS: KPOINTS created by Atomic Simulation Env

Automatic generation of k-mesh.
Space group operators:
 irot       det(A)        alpha          n_x          n_y          n_z        tau_x        tau_y        tau_z
    1     1.000000     0.000000     1.000000     0.000000     0.000000     0.000000     0.000000     0.000000
    2     1.000000   120.000000    -0.577350    -0.577350    -0.577350     0.000000     0.000000     0.000000
    3     1.000000   120.000000     0.577350     0.577350     0.577350     0.000000     0.000000     0.000000
    4    -1.000000    90.000000     0.000000     0.000000    -1.000000     0.000000     0.000000     0.000000
    5    -1.000000   180.000000     0.000000     0.707107     0.707107     0.000000     0.000000     0.000000
    6    -1.000000    90.000000     0.000000     1.000000     0.000000     0.000000     0.000000     0.000000
    7     1.000000   180.000000     0.000000     0.000000     1.000000     0.000000     0.000000     0.000000
    8     1.000000   120.000000    -0.577350     0.577350     0.577350     0.000000     0.000000     0.000000
    9     1.000000   120.000000    -0.577350     0.577350    -0.577350     0.000000     0.000000     0.000000
   10    -1.000000    90.000000     0.000000     0.000000     1.000000     0.000000     0.000000     0.000000
   11    -1.000000    90.000000    -1.000000     0.000000     0.000000     0.000000     0.000000     0.000000
   12    -1.000000   180.000000     0.707107     0.000000     0.707107     0.000000     0.000000     0.000000
   13     1.000000   120.000000     0.577350    -0.577350     0.577350     0.000000     0.000000     0.000000
   14     1.000000   120.000000    -0.577350    -0.577350     0.577350     0.000000     0.000000     0.000000
   15     1.000000   180.000000     1.000000     0.000000     0.000000     0.000000     0.000000     0.000000
   16    -1.000000    90.000000     0.000000    -1.000000     0.000000     0.000000     0.000000     0.000000
   17    -1.000000   180.000000     0.707107     0.707107     0.000000     0.000000     0.000000     0.000000
   18    -1.000000    90.000000     1.000000     0.000000     0.000000     0.000000     0.000000     0.000000
   19     1.000000   120.000000     0.577350    -0.577350    -0.577350     0.000000     0.000000     0.000000
   20     1.000000   180.000000     0.000000     1.000000     0.000000     0.000000     0.000000     0.000000
   21     1.000000   120.000000     0.577350     0.577350    -0.577350     0.000000     0.000000     0.000000
   22    -1.000000   180.000000     0.000000    -0.707107     0.707107     0.000000     0.000000     0.000000
   23    -1.000000   180.000000     0.707107    -0.707107     0.000000     0.000000     0.000000     0.000000
   24    -1.000000   180.000000     0.707107     0.000000    -0.707107     0.000000     0.000000     0.000000
 
 Subroutine IBZKPT returns following result:
 ===========================================
 
 Found     30 irreducible k-points:
 
 Following reciprocal coordinates:
            Coordinates               Weight
  0.000000  0.000000  0.000000      1.000000
  0.142857  0.000000  0.000000      4.000000
  0.285714  0.000000  0.000000      4.000000
  0.428571  0.000000  0.000000      4.000000
 -0.428571  0.000000  0.000000      4.000000
 -0.285714  0.000000  0.000000      4.000000
 -0.142857  0.000000  0.000000      4.000000
  0.142857  0.142857  0.000000      6.000000
  0.285714  0.142857  0.000000     12.000000
  0.428571  0.142857  0.000000     12.000000
 -0.428571  0.142857  0.000000     12.000000
 -0.285714  0.142857  0.000000     12.000000
 -0.142857  0.142857  0.000000     12.000000
  0.285714  0.285714  0.000000      6.000000
  0.428571  0.285714  0.000000     12.000000
 -0.428571  0.285714  0.000000     12.000000
 -0.285714  0.285714  0.000000     12.000000
 -0.142857  0.285714  0.000000     12.000000
  0.428571  0.428571  0.000000      6.000000
 -0.428571  0.428571  0.000000     12.000000
 -0.285714  0.428571  0.000000     12.000000
 -0.142857  0.428571  0.000000     12.000000
 -0.285714 -0.428571  0.000000     12.000000
 -0.142857 -0.428571  0.000000     12.000000
 -0.142857 -0.285714  0.000000     12.000000
  0.428571  0.285714  0.142857     24.000000
 -0.428571  0.285714  0.142857     24.000000
 -0.285714  0.285714  0.142857     24.000000
 -0.428571  0.428571  0.142857     24.000000
 -0.285714  0.428571  0.142857     24.000000
 
 Following cartesian coordinates:
            Coordinates               Weight
  0.000000  0.000000  0.000000      1.000000
 -0.023580  0.023580  0.023580      4.000000
 -0.047160  0.047160  0.047160      4.000000
 -0.070740  0.070740  0.070740      4.000000
  0.070740 -0.070740 -0.070740      4.000000
  0.047160 -0.047160 -0.047160      4.000000
  0.023580 -0.023580 -0.023580      4.000000
  0.000000  0.000000  0.047160      6.000000
 -0.023580  0.023580  0.070740     12.000000
 -0.047160  0.047160  0.094320     12.000000
  0.094320 -0.094320 -0.047160     12.000000
  0.070740 -0.070740 -0.023580     12.000000
  0.047160 -0.047160  0.000000     12.000000
  0.000000  0.000000  0.094320      6.000000
 -0.023580  0.023580  0.117900     12.000000
  0.117900 -0.117900 -0.023580     12.000000
  0.094320 -0.094320  0.000000     12.000000
  0.070740 -0.070740  0.023580     12.000000
  0.000000  0.000000  0.141480      6.000000
  0.141480 -0.141480  0.000000     12.000000
  0.117900 -0.117900  0.023580     12.000000
  0.094320 -0.094320  0.047160     12.000000
 -0.023580  0.023580 -0.117900     12.000000
 -0.047160  0.047160 -0.094320     12.000000
 -0.023580  0.023580 -0.070740     12.000000
 -0.000000  0.047160  0.094320     24.000000
  0.141480 -0.094320 -0.047160     24.000000
  0.117900 -0.070740 -0.023580     24.000000
  0.165060 -0.117900 -0.023580     24.000000
  0.141480 -0.094320 -0.000000     24.000000
 


--------------------------------------------------------------------------------------------------------




 Dimension of arrays:
   k-points           NKPTS =     30   k-points in BZ     NKDIM =     30   number of bands    NBANDS=     21
   number of dos      NEDOS =    301   number of ions     NIONS =      2
   non local maximal  LDIM  =      6   non local SUM 2l+1 LMDIM =     18
   total plane-waves  NPLWV =  13824
   max r-space proj   IRMAX =      1   max aug-charges    IRDMAX=  10939
   dimension x,y,z NGX =    24 NGY =   24 NGZ =   24
   dimension x,y,z NGXF=    48 NGYF=   48 NGZF=   48
   support grid    NGXF=    48 NGYF=   48 NGZF=   48
   ions per type =               1   1
   NGX,Y,Z   is equivalent  to a cutoff of   9.31,  9.31,  9.31 a.u.
   NGXF,Y,Z  is equivalent  to a cutoff of  18.63, 18.63, 18.63 a.u.

 SYSTEM =  unknown system                          
 POSCAR =  In As                                   

 Startparameter for this run:
   NWRITE =      2    write-flag & timer
   PREC   = n         normal or accurate (medium, high low for compatibility)
   ISTART =      0    job   : 0-new  1-cont  2-samecut
   ICHARG =      2    charge: 1-file 2-atom 10-const
   ISPIN  =      1    spin polarized calculation?
   LNONCOLLINEAR =      T non collinear calculations
   LSORBIT =      T    spin-orbit coupling
   INIWAV =      1    electr: 0-lowe 1-rand  2-diag
   LASPH  =      F    aspherical Exc in radial PAW
   METAGGA=      F    non-selfconsistent MetaGGA calc.

 Electronic Relaxation 1
   ENCUT  =  400.0 eV  29.40 Ry    5.42 a.u.   6.99  6.99  6.99*2*pi/ulx,y,z
   ENINI  =  400.0     initial cutoff
   ENAUG  =  462.8 eV  augmentation charge cutoff
   NELM   =     60;   NELMIN=  2; NELMDL= -5     # of ELM steps 
   EDIFF  = 0.1E-04   stopping-criterion for ELM
   LREAL  =      F    real-space projection
   NLSPLINE    = F    spline interpolate recip. space projectors
   LCOMPAT=      F    compatible to vasp.4.4
   GGA_COMPAT  = T    GGA compatible to vasp.4.4-vasp.4.6
   LMAXPAW     = -100 max onsite density
   LMAXMIX     =    4 max onsite mixed and CHGCAR
   VOSKOWN=      0    Vosko Wilk Nusair interpolation
   ROPT   =    0.00000   0.00000
 Ionic relaxation
   EDIFFG = 0.1E-03   stopping-criterion for IOM
   NSW    =      0    number of steps for IOM
   NBLOCK =      1;   KBLOCK =      1    inner block; outer block 
   IBRION =     -1    ionic relax: 0-MD 1-quasi-New 2-CG
   NFREE  =      0    steps in history (QN), initial steepest desc. (CG)
   ISIF   =      2    stress and relaxation
   IWAVPR =     10    prediction:  0-non 1-charg 2-wave 3-comb
   ISYM   =      2    0-nonsym 1-usesym 2-fastsym
   LCORR  =      T    Harris-Foulkes like correction to forces

   POTIM  = 0.5000    time-step for ionic-motion
   TEIN   =    0.0    initial temperature
   TEBEG  =    0.0;   TEEND  =   0.0 temperature during run
   SMASS  =  -3.00    Nose mass-parameter (am)
   estimated Nose-frequenzy (Omega)   =  0.10E-29 period in steps =****** mass=  -0.419E-27a.u.
   SCALEE = 1.0000    scale energy and forces
   NPACO  =    256;   APACO  = 16.0  distance and # of slots for P.C.
   PSTRESS=    0.0 pullay stress

  Mass of Ions in am
   POMASS = 114.82 74.92
  Ionic Valenz
   ZVAL   =  13.00  5.00
  Atomic Wigner-Seitz radii
   RWIGS  =  -1.00 -1.00
  virtual crystal weights 
   VCA    =   1.00  1.00
   NELECT =      18.0000    total number of electrons
   NUPDOWN=      -1.0000    fix difference up-down

 DOS related values:
   EMIN   =  10.00;   EMAX   =-10.00  energy-range for DOS
   EFERMI =   0.00
   ISMEAR =     1;   SIGMA  =   0.05  broadening in eV -4-tet -1-fermi 0-gaus

 Electronic relaxation 2 (details)
   IALGO  =     53    algorithm
   LDIAG  =      T    sub-space diagonalisation (order eigenvalues)
   LSUBROT=      F    optimize rotation matrix (better conditioning)
   TURBO    =      0    0=normal 1=particle mesh
   IRESTART =      0    0=no restart 2=restart with 2 vectors
   NREBOOT  =      0    no. of reboots
   NMIN     =      0    reboot dimension
   EREF     =   0.00    reference energy to select bands
   IMIX   =      4    mixing-type and parameters
     AMIX     =   0.40;   BMIX     =  3.00
     AMIX_MAG =   1.60;   BMIX_MAG =  3.00
     AMIN     =   0.01
     WC   =   100.;   INIMIX=   1;  MIXPRE=   1;  MAXMIX= -45

 Intra band minimization:
   WEIMIN = 0.0000     energy-eigenvalue tresh-hold
   EBREAK =  0.12E-06  absolut break condition
   DEPER  =   0.30     relativ break condition  

   TIME   =   0.40     timestep for ELM

  volume/ion in A,a.u.               =      27.80       187.58
  Fermi-wavevector in a.u.,A,eV,Ry     =   1.124159  2.124352 17.194136  1.263733
  Thomas-Fermi vector in A             =   2.260829
 
 Write flags
   LWAVE        =      T    write WAVECAR
   LDOWNSAMPLE  =      F    k-point downsampling of WAVECAR
   LCHARG       =      T    write CHGCAR
   LVTOT        =      F    write LOCPOT, total local potential
   LVHAR        =      F    write LOCPOT, Hartree potential only
   LELF         =      F    write electronic localiz. function (ELF)
   LORBIT       =     11    0 simple, 1 ext, 2 COOP (PROOUT), +10 PAW based schemes


 Dipole corrections
   LMONO  =      F    monopole corrections only (constant potential shift)
   LDIPOL =      F    correct potential (dipole corrections)
   IDIPOL =      0    1-x, 2-y, 3-z, 4-all directions 
   EPSILON=  1.0000000 bulk dielectric constant

 LDA+U is selected, type is set to LDAUTYPE =  2
   angular momentum for each species LDAUL =     1    1
   U (eV)           for each species LDAUU =   0.0  0.0
   J (eV)           for each species LDAUJ =   0.0  0.0
 Exchange correlation treatment:
   GGA     =    PE    GGA type
   LEXCH   =     8    internal setting for exchange type
   VOSKOWN=      0    Vosko Wilk Nusair interpolation
   LHFCALC =     F    Hartree Fock is set to
   LHFONE  =     F    Hartree Fock one center treatment
   AEXX    =    0.0000 exact exchange contribution

 Linear response parameters
   LEPSILON=     F    determine dielectric tensor
   LRPA    =     F    only Hartree local field effects (RPA)
   LNABLA  =     F    use nabla operator in PAW spheres
   LVEL    =     F    velocity operator in full k-point grid
   LINTERFAST=   F  fast interpolation
   KINTER  =     0    interpolate to denser k-point grid
   CSHIFT  =0.1000    complex shift for real part using Kramers Kronig
   OMEGAMAX=  -1.0    maximum frequency
   DEG_THRESHOLD= 0.2000000E-02 threshold for treating states as degnerate
   RTIME   =   -0.100 relaxation time in fs
  (WPLASMAI=    0.000 imaginary part of plasma frequency in eV, 0.658/RTIME)
   DFIELD  = 0.0000000 0.0000000 0.0000000 field for delta impulse in time
 
 Orbital magnetization related:
   ORBITALMAG=     F  switch on orbital magnetization
   LCHIMAG   =     F  perturbation theory with respect to B field
   DQ        =  0.001000  dq finite difference perturbation B field
   LLRAUG    =     F  two centre corrections for induced B field



--------------------------------------------------------------------------------------------------------


 Static calculation
 charge density and potential will be updated during run
 non collinear spin polarized calculation
 Conjugate gradient for all bands (Freysoldt, et al. PRB 79, 241103 (2009))
 perform sub-space diagonalisation
    before iterative eigenvector-optimisation
 modified Broyden-mixing scheme, WC =      100.0
 initial mixing is a Kerker type mixing with AMIX =  0.4000 and BMIX =      3.0000
 Hartree-type preconditioning will be used
 using additional bands           12
 reciprocal scheme for non local part
 use partial core corrections
 no Harris-corrections to forces 
 use gradient corrections 
 use of overlap-Matrix (Vanderbilt PP)
 Methfessel and Paxton  Order N= 1 SIGMA  =   0.05


--------------------------------------------------------------------------------------------------------


  energy-cutoff  :      400.00
  volume of cell :       55.59
      direct lattice vectors                 reciprocal lattice vectors
     0.000000000  3.029200000  3.029200000    -0.165060082  0.165060082  0.165060082
     3.029200000  0.000000000  3.029200000     0.165060082 -0.165060082  0.165060082
     3.029200000  3.029200000  0.000000000     0.165060082  0.165060082 -0.165060082

  length of vectors
     4.283935723  4.283935723  4.283935723     0.285892448  0.285892448  0.285892448


 
 k-points in units of 2pi/SCALE and weight: KPOINTS created by Atomic Simulation Env
   0.00000000  0.00000000  0.00000000       0.003
  -0.02358001  0.02358001  0.02358001       0.012
  -0.04716002  0.04716002  0.04716002       0.012
  -0.07074004  0.07074004  0.07074004       0.012
   0.07074004 -0.07074004 -0.07074004       0.012
   0.04716002 -0.04716002 -0.04716002       0.012
   0.02358001 -0.02358001 -0.02358001       0.012
   0.00000000  0.00000000  0.04716002       0.017
  -0.02358001  0.02358001  0.07074004       0.035
  -0.04716002  0.04716002  0.09432005       0.035
   0.09432005 -0.09432005 -0.04716002       0.035
   0.07074004 -0.07074004 -0.02358001       0.035
   0.04716002 -0.04716002  0.00000000       0.035
   0.00000000  0.00000000  0.09432005       0.017
  -0.02358001  0.02358001  0.11790006       0.035
   0.11790006 -0.11790006 -0.02358001       0.035
   0.09432005 -0.09432005  0.00000000       0.035
   0.07074004 -0.07074004  0.02358001       0.035
   0.00000000  0.00000000  0.14148007       0.017
   0.14148007 -0.14148007  0.00000000       0.035
   0.11790006 -0.11790006  0.02358001       0.035
   0.09432005 -0.09432005  0.04716002       0.035
  -0.02358001  0.02358001 -0.11790006       0.035
  -0.04716002  0.04716002 -0.09432005       0.035
  -0.02358001  0.02358001 -0.07074004       0.035
  -0.00000000  0.04716002  0.09432005       0.070
   0.14148007 -0.09432005 -0.04716002       0.070
   0.11790006 -0.07074004 -0.02358001       0.070
   0.16506008 -0.11790006 -0.02358001       0.070
   0.14148007 -0.09432005 -0.00000000       0.070
 
 k-points in reciprocal lattice and weights: KPOINTS created by Atomic Simulation Env
   0.00000000  0.00000000  0.00000000       0.003
   0.14285714  0.00000000  0.00000000       0.012
   0.28571429  0.00000000  0.00000000       0.012
   0.42857143  0.00000000  0.00000000       0.012
  -0.42857143  0.00000000  0.00000000       0.012
  -0.28571429  0.00000000  0.00000000       0.012
  -0.14285714  0.00000000  0.00000000       0.012
   0.14285714  0.14285714  0.00000000       0.017
   0.28571429  0.14285714  0.00000000       0.035
   0.42857143  0.14285714  0.00000000       0.035
  -0.42857143  0.14285714  0.00000000       0.035
  -0.28571429  0.14285714  0.00000000       0.035
  -0.14285714  0.14285714  0.00000000       0.035
   0.28571429  0.28571429  0.00000000       0.017
   0.42857143  0.28571429  0.00000000       0.035
  -0.42857143  0.28571429  0.00000000       0.035
  -0.28571429  0.28571429  0.00000000       0.035
  -0.14285714  0.28571429  0.00000000       0.035
   0.42857143  0.42857143  0.00000000       0.017
  -0.42857143  0.42857143  0.00000000       0.035
  -0.28571429  0.42857143  0.00000000       0.035
  -0.14285714  0.42857143  0.00000000       0.035
  -0.28571429 -0.42857143  0.00000000       0.035
  -0.14285714 -0.42857143  0.00000000       0.035
  -0.14285714 -0.28571429  0.00000000       0.035
   0.42857143  0.28571429  0.14285714       0.070
  -0.42857143  0.28571429  0.14285714       0.070
  -0.28571429  0.28571429  0.14285714       0.070
  -0.42857143  0.42857143  0.14285714       0.070
  -0.28571429  0.42857143  0.14285714       0.070
 
 position of ions in fractional coordinates (direct lattice) 
   0.00000000  0.00000000  0.00000000
   0.75000000  0.75000000  0.75000000
 
 position of ions in cartesian coordinates  (Angst):
   0.00000000  0.00000000  0.00000000
   4.54380000  4.54380000  4.54380000
 
 Euler angles ALPHA=     0.0000000  BETA=     0.0000000

 transformation matrix from SAXIS to cartesian coordinates
 ---------------------------------------------------------
     1.0000000 m_x     0.0000000 m_y     0.0000000 m_z
     0.0000000 m_x     1.0000000 m_y     0.0000000 m_z
     0.0000000 m_x     0.0000000 m_y     1.0000000 m_z

 transformation matrix from cartesian coordinates to SAXIS
 ---------------------------------------------------------
     1.0000000 m_x     0.0000000 m_y     0.0000000 m_z
     0.0000000 m_x     1.0000000 m_y     0.0000000 m_z
     0.0000000 m_x     0.0000000 m_y     1.0000000 m_z




--------------------------------------------------------------------------------------------------------


 k-point  1 :   0.0000 0.0000 0.0000  plane waves:    1930
 k-point  2 :   0.1429 0.0000 0.0000  plane waves:    1978
 k-point  3 :   0.2857 0.0000 0.0000  plane waves:    2020
 k-point  4 :   0.4286 0.0000 0.0000  plane waves:    2034
 k-point  5 :  -0.4286 0.0000 0.0000  plane waves:    2034
 k-point  6 :  -0.2857 0.0000 0.0000  plane waves:    2020
 k-point  7 :  -0.1429 0.0000 0.0000  plane waves:    1978
 k-point  8 :   0.1429 0.1429 0.0000  plane waves:    1988
 k-point  9 :   0.2857 0.1429 0.0000  plane waves:    2000
 k-point 10 :   0.4286 0.1429 0.0000  plane waves:    2020
 k-point 11 :  -0.4286 0.1429 0.0000  plane waves:    2012
 k-point 12 :  -0.2857 0.1429 0.0000  plane waves:    2036
 k-point 13 :  -0.1429 0.1429 0.0000  plane waves:    1990
 k-point 14 :   0.2857 0.2857 0.0000  plane waves:    2036
 k-point 15 :   0.4286 0.2857 0.0000  plane waves:    2024
 k-point 16 :  -0.4286 0.2857 0.0000  plane waves:    2022
 k-point 17 :  -0.2857 0.2857 0.0000  plane waves:    2022
 k-point 18 :  -0.1429 0.2857 0.0000  plane waves:    2036
 k-point 19 :   0.4286 0.4286 0.0000  plane waves:    2012
 k-point 20 :  -0.4286 0.4286 0.0000  plane waves:    2026
 k-point 21 :  -0.2857 0.4286 0.0000  plane waves:    2022
 k-point 22 :  -0.1429 0.4286 0.0000  plane waves:    2012
 k-point 23 :  -0.2857-0.4286 0.0000  plane waves:    2024
 k-point 24 :  -0.1429-0.4286 0.0000  plane waves:    2020
 k-point 25 :  -0.1429-0.2857 0.0000  plane waves:    2000
 k-point 26 :   0.4286 0.2857 0.1429  plane waves:    2022
 k-point 27 :  -0.4286 0.2857 0.1429  plane waves:    2026
 k-point 28 :  -0.2857 0.2857 0.1429  plane waves:    2026
 k-point 29 :  -0.4286 0.4286 0.1429  plane waves:    2038
 k-point 30 :  -0.2857 0.4286 0.1429  plane waves:    2028

 maximum and minimum number of plane-waves per node :       704      622

 maximum number of plane-waves:      2038
 maximum index in each direction: 
   IXMAX=    7   IYMAX=    7   IZMAX=    6
   IXMIN=   -7   IYMIN=   -7   IZMIN=   -7


 parallel 3D FFT for wavefunctions:
    minimum data exchange during FFTs selected (reduces bandwidth)
 parallel 3D FFT for charge:
    minimum data exchange during FFTs selected (reduces bandwidth)


 total amount of memory used by VASP MPI-rank0    45585. kBytes
=======================================================================

   base      :      30000. kBytes
   nonl-proj :       3069. kBytes
   fftplans  :       1050. kBytes
   grid      :       3907. kBytes
   one-center:         62. kBytes
   wavefun   :       7497. kBytes
 
     INWAV:  cpu time    0.0000: real time    0.0000
 Broyden mixing: mesh for mixing (old mesh)
   NGX = 13   NGY = 13   NGZ = 13
  (NGX  = 48   NGY  = 48   NGZ  = 48)
  gives a total of   2197 points

 initial charge density was supplied:
 charge density of overlapping atoms calculated
 number of electron      18.0000000 magnetization       0.0000000      0.0000000      0.0000000
 keeping initial charge density in first step


--------------------------------------------------------------------------------------------------------


 Maximum index for augmentation-charges         1552 (set IRDMAX)


--------------------------------------------------------------------------------------------------------


 First call to EWALD:  gamma=   0.464
 Maximum number of real-space cells 3x 3x 3
 Maximum number of reciprocal cells 3x 3x 3

    FEWALD:  cpu time    0.0035: real time    0.0035


--------------------------------------- Iteration      1(   1)  ---------------------------------------


    POTLOK:  cpu time    0.0844: real time    0.2145
    SETDIJ:  cpu time    0.0081: real time    0.0137
    TRIAL :  cpu time    0.0691: real time    0.0701
    CORREC:  cpu time    0.0002: real time    0.0002
    --------------------------------------------
      LOOP:  cpu time    0.1649: real time    0.3048

 eigenvalue-minimisations  :  1371
 total energy-change (2. order) : 0.1909501E+03  (-0.6605687E+03)
 number of electron      18.0000000 magnetization       0.0000000      0.0000000      0.0000000
 augmentation part       18.0000000 magnetization       0.0000000      0.0000000      0.0000000

 Free energy of the ion-electron system (eV)
  ---------------------------------------------------
  alpha Z        PSCENC =        38.22227472
  Ewald energy   TEWEN  =     -1180.94574891
  -Hartree energ DENC   =      -574.28475018
  -exchange      EXHF   =         0.00000000
  -V(xc)+E(xc)   XCENC  =        30.05432960
  PAW double counting   =      1528.00464014    -1497.26050993
  entropy T*S    EENTRO =        -0.00069613
  eigenvalues    EBANDS =       100.15009244
  atomic energy  EATOM  =      1747.01046045
  ---------------------------------------------------
  free energy    TOTEN  =       190.95009218 eV

  energy without entropy =      190.95078831  energy(sigma->0) =      190.95032423


--------------------------------------------------------------------------------------------------------




--------------------------------------- Iteration      1(   2)  ---------------------------------------


    TRIAL :  cpu time    0.0761: real time    0.0768
    CORREC:  cpu time    0.0002: real time    0.0002
    --------------------------------------------
      LOOP:  cpu time    0.0767: real time    0.0776

 eigenvalue-minimisations  :  1824
 total energy-change (2. order) :-0.1344767E+03  (-0.1316092E+03)
 number of electron      18.0000000 magnetization       0.0000000      0.0000000      0.0000000
 augmentation part       18.0000000 magnetization       0.0000000      0.0000000      0.0000000

 Free energy of the ion-electron system (eV)
  ---------------------------------------------------
  alpha Z        PSCENC =        38.22227472
  Ewald energy   TEWEN  =     -1180.94574891
  -Hartree energ DENC   =      -574.28475018
  -exchange      EXHF   =         0.00000000
  -V(xc)+E(xc)   XCENC  =        30.05432960
  PAW double counting   =      1528.00464014    -1497.26050993
  entropy T*S    EENTRO =        -0.00007049
  eigenvalues    EBANDS =       -34.32723446
  atomic energy  EATOM  =      1747.01046045
  ---------------------------------------------------
  free energy    TOTEN  =        56.47339093 eV

  energy without entropy =       56.47346142  energy(sigma->0) =       56.47341443


--------------------------------------------------------------------------------------------------------




--------------------------------------- Iteration      1(   3)  ---------------------------------------


    TRIAL :  cpu time    0.0654: real time    0.0660
    CORREC:  cpu time    0.0002: real time    0.0002
    --------------------------------------------
      LOOP:  cpu time    0.0658: real time    0.0663

 eigenvalue-minimisations  :  1656
 total energy-change (2. order) :-0.4341439E+02  (-0.4201846E+02)
 number of electron      18.0000000 magnetization       0.0000000      0.0000000      0.0000000
 augmentation part       18.0000000 magnetization       0.0000000      0.0000000      0.0000000

 Free energy of the ion-electron system (eV)
  ---------------------------------------------------
  alpha Z        PSCENC =        38.22227472
  Ewald energy   TEWEN  =     -1180.94574891
  -Hartree energ DENC   =      -574.28475018
  -exchange      EXHF   =         0.00000000
  -V(xc)+E(xc)   XCENC  =        30.05432960
  PAW double counting   =      1528.00464014    -1497.26050993
  entropy T*S    EENTRO =        -0.00031497
  eigenvalues    EBANDS =       -77.74138236
  atomic energy  EATOM  =      1747.01046045
  ---------------------------------------------------
  free energy    TOTEN  =        13.05899855 eV

  energy without entropy =       13.05931352  energy(sigma->0) =       13.05910354


--------------------------------------------------------------------------------------------------------




--------------------------------------- Iteration      1(   4)  ---------------------------------------


    TRIAL :  cpu time    0.0777: real time    0.0784
    CORREC:  cpu time    0.0002: real time    0.0002
    --------------------------------------------
      LOOP:  cpu time    0.0780: real time    0.0789

 eigenvalue-minimisations  :  2412
 total energy-change (2. order) :-0.1696022E+02  (-0.1662317E+02)
 number of electron      18.0000000 magnetization       0.0000000      0.0000000      0.0000000
 augmentation part       18.0000000 magnetization       0.0000000      0.0000000      0.0000000

 Free energy of the ion-electron system (eV)
  ---------------------------------------------------
  alpha Z        PSCENC =        38.22227472
  Ewald energy   TEWEN  =     -1180.94574891
  -Hartree energ DENC   =      -574.28475018
  -exchange      EXHF   =         0.00000000
  -V(xc)+E(xc)   XCENC  =        30.05432960
  PAW double counting   =      1528.00464014    -1497.26050993
  entropy T*S    EENTRO =        -0.00003785
  eigenvalues    EBANDS =       -94.70187477
  atomic energy  EATOM  =      1747.01046045
  ---------------------------------------------------
  free energy    TOTEN  =        -3.90121674 eV

  energy without entropy =       -3.90117889  energy(sigma->0) =       -3.90120412


--------------------------------------------------------------------------------------------------------




--------------------------------------- Iteration      1(   5)  ---------------------------------------


    TRIAL :  cpu time    0.0788: real time    0.0795
    CORREC:  cpu time    0.0003: real time    0.0003
    CHARGE:  cpu time    0.0624: real time    0.1560
    --------------------------------------------
      LOOP:  cpu time    0.1417: real time    0.2360

 eigenvalue-minimisations  :  2520
 total energy-change (2. order) :-0.2985327E+01  (-0.2943499E+01)
 number of electron      17.9999986 magnetization       0.0000000     -0.0000000     -0.0000000
 augmentation part        6.2067927 magnetization       0.0000000     -0.0000000     -0.0000000

 Free energy of the ion-electron system (eV)
  ---------------------------------------------------
  alpha Z        PSCENC =        38.22227472
  Ewald energy   TEWEN  =     -1180.94574891
  -Hartree energ DENC   =      -574.28475018
  -exchange      EXHF   =         0.00000000
  -V(xc)+E(xc)   XCENC  =        30.05432960
  PAW double counting   =      1528.00464014    -1497.26050993
  entropy T*S    EENTRO =         0.00000423
  eigenvalues    EBANDS =       -97.68724391
  atomic energy  EATOM  =      1747.01046045
  ---------------------------------------------------
  free energy    TOTEN  =        -6.88654380 eV

  energy without entropy =       -6.88654803  energy(sigma->0) =       -6.88654521


--------------------------------------------------------------------------------------------------------




--------------------------------------- Iteration      1(   6)  ---------------------------------------


    POTLOK:  cpu time    0.0207: real time    0.0209
    SETDIJ:  cpu time    0.0080: real time    0.0086
    TRIAL :  cpu time    0.0318: real time    0.0326
    CORREC:  cpu time    0.0002: real time    0.0002
    CHARGE:  cpu time    0.0154: real time    0.0155
    --------------------------------------------
      LOOP:  cpu time    0.0763: real time    0.0781

 eigenvalue-minimisations  :     0
 total energy-change (2. order) : 0.2823639E+00  (-0.8369004E+00)
 number of electron      17.9999986 magnetization      -0.0000000     -0.0000000     -0.0000000
 augmentation part        6.2906446 magnetization      -0.0000000     -0.0000000     -0.0000000

 Free energy of the ion-electron system (eV)
  ---------------------------------------------------
  alpha Z        PSCENC =        38.22227472
  Ewald energy   TEWEN  =     -1180.94574891
  -Hartree energ DENC   =      -564.87458138
  -exchange      EXHF   =         0.00000000
  -V(xc)+E(xc)   XCENC  =        30.10513200
  PAW double counting   =      2665.59055345    -2634.66105755
  entropy T*S    EENTRO =         0.00000423
  eigenvalues    EBANDS =      -107.05121689
  atomic energy  EATOM  =      1747.01046045
  ---------------------------------------------------
  free energy    TOTEN  =        -6.60417989 eV

  energy without entropy =       -6.60418411  energy(sigma->0) =       -6.60418129


--------------------------------------------------------------------------------------------------------




--------------------------------------- Iteration      1(   7)  ---------------------------------------


    POTLOK:  cpu time    0.0199: real time    0.0201
    SETDIJ:  cpu time    0.0076: real time    0.0077
    TRIAL :  cpu time    0.0312: real time    0.0318
    CORREC:  cpu time    0.0002: real time    0.0002
    CHARGE:  cpu time    0.0164: real time    0.0166
    --------------------------------------------
      LOOP:  cpu time    0.0756: real time    0.0766

 eigenvalue-minimisations  :     0
 total energy-change (2. order) :-0.5663503E+00  (-0.5048541E+00)
 number of electron      17.9999986 magnetization       0.0000000      0.0000000     -0.0000000
 augmentation part        6.2092509 magnetization       0.0000000      0.0000000     -0.0000000

 Free energy of the ion-electron system (eV)
  ---------------------------------------------------
  alpha Z        PSCENC =        38.22227472
  Ewald energy   TEWEN  =     -1180.94574891
  -Hartree energ DENC   =      -574.23409745
  -exchange      EXHF   =         0.00000000
  -V(xc)+E(xc)   XCENC  =        30.45428395
  PAW double counting   =      2609.09665766    -2578.97623215
  entropy T*S    EENTRO =         0.00000423
  eigenvalues    EBANDS =       -97.79813265
  atomic energy  EATOM  =      1747.01046045
  ---------------------------------------------------
  free energy    TOTEN  =        -7.17053015 eV

  energy without entropy =       -7.17053437  energy(sigma->0) =       -7.17053156


--------------------------------------------------------------------------------------------------------




--------------------------------------- Iteration      1(   8)  ---------------------------------------


    POTLOK:  cpu time    0.0197: real time    0.0199
    SETDIJ:  cpu time    0.0079: real time    0.0080
    TRIAL :  cpu time    0.0309: real time    0.0315
    CORREC:  cpu time    0.0002: real time    0.0002
    CHARGE:  cpu time    0.0134: real time    0.0136
    --------------------------------------------
      LOOP:  cpu time    0.0723: real time    0.0733

 eigenvalue-minimisations  :     0
 total energy-change (2. order) :-0.3187640E+00  (-0.1671189E+00)
 number of electron      17.9999986 magnetization      -0.0000000     -0.0000000      0.0000000
 augmentation part        6.2146799 magnetization      -0.0000000     -0.0000000      0.0000000

 Free energy of the ion-electron system (eV)
  ---------------------------------------------------
  alpha Z        PSCENC =        38.22227472
  Ewald energy   TEWEN  =     -1180.94574891
  -Hartree energ DENC   =      -567.80263593
  -exchange      EXHF   =         0.00000000
  -V(xc)+E(xc)   XCENC  =        30.16861005
  PAW double counting   =      2558.37307022    -2528.26189706
  entropy T*S    EENTRO =         0.00000423
  eigenvalues    EBANDS =      -104.25343195
  atomic energy  EATOM  =      1747.01046045
  ---------------------------------------------------
  free energy    TOTEN  =        -7.48929419 eV

  energy without entropy =       -7.48929841  energy(sigma->0) =       -7.48929560


--------------------------------------------------------------------------------------------------------




--------------------------------------- Iteration      1(   9)  ---------------------------------------


    POTLOK:  cpu time    0.0201: real time    0.0202
    SETDIJ:  cpu time    0.0072: real time    0.0073
    TRIAL :  cpu time    0.0308: real time    0.0314
    CORREC:  cpu time    0.0002: real time    0.0002
    CHARGE:  cpu time    0.0122: real time    0.0122
    --------------------------------------------
      LOOP:  cpu time    0.0707: real time    0.0716

 eigenvalue-minimisations  :     0
 total energy-change (2. order) :-0.1179871E+00  (-0.7067275E-01)
 number of electron      17.9999986 magnetization       0.0000000      0.0000000      0.0000000
 augmentation part        6.2244052 magnetization       0.0000000      0.0000000      0.0000000

 Free energy of the ion-electron system (eV)
  ---------------------------------------------------
  alpha Z        PSCENC =        38.22227472
  Ewald energy   TEWEN  =     -1180.94574891
  -Hartree energ DENC   =      -569.82447275
  -exchange      EXHF   =         0.00000000
  -V(xc)+E(xc)   XCENC  =        30.23603434
  PAW double counting   =      2484.50922098    -2454.63498589
  entropy T*S    EENTRO =         0.00000430
  eigenvalues    EBANDS =      -102.18006840
  atomic energy  EATOM  =      1747.01046045
  ---------------------------------------------------
  free energy    TOTEN  =        -7.60728124 eV

  energy without entropy =       -7.60728554  energy(sigma->0) =       -7.60728267


--------------------------------------------------------------------------------------------------------




--------------------------------------- Iteration      1(  10)  ---------------------------------------


    POTLOK:  cpu time    0.0196: real time    0.0197
    SETDIJ:  cpu time    0.0076: real time    0.0077
    TRIAL :  cpu time    0.0318: real time    0.0323
    CORREC:  cpu time    0.0002: real time    0.0002
    CHARGE:  cpu time    0.0122: real time    0.0122
    --------------------------------------------
      LOOP:  cpu time    0.0715: real time    0.0724

 eigenvalue-minimisations  :     0
 total energy-change (2. order) :-0.5192685E-01  (-0.4036595E-01)
 number of electron      17.9999986 magnetization       0.0000000      0.0000000      0.0000000
 augmentation part        6.2086928 magnetization       0.0000000      0.0000000      0.0000000

 Free energy of the ion-electron system (eV)
  ---------------------------------------------------
  alpha Z        PSCENC =        38.22227472
  Ewald energy   TEWEN  =     -1180.94574891
  -Hartree energ DENC   =      -571.65927358
  -exchange      EXHF   =         0.00000000
  -V(xc)+E(xc)   XCENC  =        30.30649358
  PAW double counting   =      2422.10722528    -2392.35413390
  entropy T*S    EENTRO =         0.00000483
  eigenvalues    EBANDS =      -100.34651003
  atomic energy  EATOM  =      1747.01046045
  ---------------------------------------------------
  free energy    TOTEN  =        -7.65920809 eV

  energy without entropy =       -7.65921292  energy(sigma->0) =       -7.65920970


--------------------------------------------------------------------------------------------------------




--------------------------------------- Iteration      1(  11)  ---------------------------------------


    POTLOK:  cpu time    0.0195: real time    0.0197
    SETDIJ:  cpu time    0.0075: real time    0.0075
    TRIAL :  cpu time    0.0320: real time    0.0325
    CORREC:  cpu time    0.0002: real time    0.0002
    CHARGE:  cpu time    0.0124: real time    0.0125
    --------------------------------------------
      LOOP:  cpu time    0.0717: real time    0.0726

 eigenvalue-minimisations  :     0
 total energy-change (2. order) :-0.3093357E-01  (-0.1860606E-01)
 number of electron      17.9999986 magnetization       0.0000000      0.0000000      0.0000000
 augmentation part        6.2081156 magnetization       0.0000000      0.0000000      0.0000000

 Free energy of the ion-electron system (eV)
  ---------------------------------------------------
  alpha Z        PSCENC =        38.22227472
  Ewald energy   TEWEN  =     -1180.94574891
  -Hartree energ DENC   =      -570.35166160
  -exchange      EXHF   =         0.00000000
  -V(xc)+E(xc)   XCENC  =        30.25484143
  PAW double counting   =      2384.73726270    -2354.91598799
  entropy T*S    EENTRO =         0.00000613
  eigenvalues    EBANDS =      -101.70158729
  atomic energy  EATOM  =      1747.01046045
  ---------------------------------------------------
  free energy    TOTEN  =        -7.69014166 eV

  energy without entropy =       -7.69014780  energy(sigma->0) =       -7.69014371


--------------------------------------------------------------------------------------------------------




--------------------------------------- Iteration      1(  12)  ---------------------------------------


    POTLOK:  cpu time    0.0194: real time    0.0198
    SETDIJ:  cpu time    0.0082: real time    0.0083
    TRIAL :  cpu time    0.0314: real time    0.0320
    CORREC:  cpu time    0.0002: real time    0.0002
    CHARGE:  cpu time    0.0129: real time    0.0130
    --------------------------------------------
      LOOP:  cpu time    0.0725: real time    0.0736

 eigenvalue-minimisations  :     0
 total energy-change (2. order) :-0.1494993E-01  (-0.9182236E-02)
 number of electron      17.9999986 magnetization       0.0000000      0.0000000      0.0000000
 augmentation part        6.2131070 magnetization       0.0000000      0.0000000      0.0000000

 Free energy of the ion-electron system (eV)
  ---------------------------------------------------
  alpha Z        PSCENC =        38.22227472
  Ewald energy   TEWEN  =     -1180.94574891
  -Hartree energ DENC   =      -570.30030203
  -exchange      EXHF   =         0.00000000
  -V(xc)+E(xc)   XCENC  =        30.25263201
  PAW double counting   =      2362.06625813    -2332.24159068
  entropy T*S    EENTRO =         0.00000799
  eigenvalues    EBANDS =      -101.76908142
  atomic energy  EATOM  =      1747.01046045
  ---------------------------------------------------
  free energy    TOTEN  =        -7.70509159 eV

  energy without entropy =       -7.70509958  energy(sigma->0) =       -7.70509425


--------------------------------------------------------------------------------------------------------




--------------------------------------- Iteration      1(  13)  ---------------------------------------


    POTLOK:  cpu time    0.0193: real time    0.0194
    SETDIJ:  cpu time    0.0077: real time    0.0078
    TRIAL :  cpu time    0.0322: real time    0.0327
    CORREC:  cpu time    0.0002: real time    0.0002
    CHARGE:  cpu time    0.0122: real time    0.0123
    --------------------------------------------
      LOOP:  cpu time    0.0718: real time    0.0726

 eigenvalue-minimisations  :     0
 total energy-change (2. order) :-0.7384936E-02  (-0.4555299E-02)
 number of electron      17.9999986 magnetization       0.0000000      0.0000000      0.0000000
 augmentation part        6.2117256 magnetization       0.0000000      0.0000000      0.0000000

 Free energy of the ion-electron system (eV)
  ---------------------------------------------------
  alpha Z        PSCENC =        38.22227472
  Ewald energy   TEWEN  =     -1180.94574891
  -Hartree energ DENC   =      -570.78392429
  -exchange      EXHF   =         0.00000000
  -V(xc)+E(xc)   XCENC  =        30.27114621
  PAW double counting   =      2349.66882589    -2319.86956600
  entropy T*S    EENTRO =         0.00000923
  eigenvalues    EBANDS =      -101.28595259
  atomic energy  EATOM  =      1747.01046045
  ---------------------------------------------------
  free energy    TOTEN  =        -7.71247653 eV

  energy without entropy =       -7.71248576  energy(sigma->0) =       -7.71247960


--------------------------------------------------------------------------------------------------------




--------------------------------------- Iteration      1(  14)  ---------------------------------------


    POTLOK:  cpu time    0.0191: real time    0.0192
    SETDIJ:  cpu time    0.0088: real time    0.0088
    TRIAL :  cpu time    0.0325: real time    0.0331
    CORREC:  cpu time    0.0002: real time    0.0002
    CHARGE:  cpu time    0.0143: real time    0.0144
    --------------------------------------------
      LOOP:  cpu time    0.0759: real time    0.0768

 eigenvalue-minimisations  :     0
 total energy-change (2. order) :-0.3829550E-02  (-0.2362322E-02)
 number of electron      17.9999986 magnetization      -0.0000000     -0.0000000     -0.0000000
 augmentation part        6.2098605 magnetization      -0.0000000     -0.0000000     -0.0000000

 Free energy of the ion-electron system (eV)
  ---------------------------------------------------
  alpha Z        PSCENC =        38.22227472
  Ewald energy   TEWEN  =     -1180.94574891
  -Hartree energ DENC   =      -570.66291686
  -exchange      EXHF   =         0.00000000
  -V(xc)+E(xc)   XCENC  =        30.26581781
  PAW double counting   =      2344.42055109    -2314.61448772
  entropy T*S    EENTRO =         0.00000428
  eigenvalues    EBANDS =      -101.41226588
  atomic energy  EATOM  =      1747.01046045
  ---------------------------------------------------
  free energy    TOTEN  =        -7.71630608 eV

  energy without entropy =       -7.71631035  energy(sigma->0) =       -7.71630750


--------------------------------------------------------------------------------------------------------




--------------------------------------- Iteration      1(  15)  ---------------------------------------


    POTLOK:  cpu time    0.0195: real time    0.0196
    SETDIJ:  cpu time    0.0076: real time    0.0076
    TRIAL :  cpu time    0.0310: real time    0.0316
    CORREC:  cpu time    0.0002: real time    0.0002
    CHARGE:  cpu time    0.0122: real time    0.0122
    --------------------------------------------
      LOOP:  cpu time    0.0707: real time    0.0715

 eigenvalue-minimisations  :     0
 total energy-change (2. order) :-0.1988114E-02  (-0.1239697E-02)
 number of electron      17.9999986 magnetization      -0.0000000     -0.0000000     -0.0000000
 augmentation part        6.2102077 magnetization      -0.0000000     -0.0000000     -0.0000000

 Free energy of the ion-electron system (eV)
  ---------------------------------------------------
  alpha Z        PSCENC =        38.22227472
  Ewald energy   TEWEN  =     -1180.94574891
  -Hartree energ DENC   =      -570.52427940
  -exchange      EXHF   =         0.00000000
  -V(xc)+E(xc)   XCENC  =        30.26005154
  PAW double counting   =      2341.83982175    -2312.02735481
  entropy T*S    EENTRO =         0.00001666
  eigenvalues    EBANDS =      -101.55352380
  atomic energy  EATOM  =      1747.01046045
  ---------------------------------------------------
  free energy    TOTEN  =        -7.71829419 eV

  energy without entropy =       -7.71831085  energy(sigma->0) =       -7.71829975


--------------------------------------------------------------------------------------------------------




--------------------------------------- Iteration      1(  16)  ---------------------------------------


    POTLOK:  cpu time    0.0194: real time    0.0196
    SETDIJ:  cpu time    0.0073: real time    0.0074
    TRIAL :  cpu time    0.0311: real time    0.0317
    CORREC:  cpu time    0.0002: real time    0.0002
    CHARGE:  cpu time    0.0121: real time    0.0122
    --------------------------------------------
      LOOP:  cpu time    0.0705: real time    0.0713

 eigenvalue-minimisations  :     0
 total energy-change (2. order) :-0.1042549E-02  (-0.6074529E-03)
 number of electron      17.9999986 magnetization       0.0000000      0.0000000      0.0000000
 augmentation part        6.2104712 magnetization       0.0000000      0.0000000      0.0000000

 Free energy of the ion-electron system (eV)
  ---------------------------------------------------
  alpha Z        PSCENC =        38.22227472
  Ewald energy   TEWEN  =     -1180.94574891
  -Hartree energ DENC   =      -570.61196210
  -exchange      EXHF   =         0.00000000
  -V(xc)+E(xc)   XCENC  =        30.26339413
  PAW double counting   =      2339.78446288    -2309.97875485
  entropy T*S    EENTRO =         0.00001122
  eigenvalues    EBANDS =      -101.46347972
  atomic energy  EATOM  =      1747.01046045
  ---------------------------------------------------
  free energy    TOTEN  =        -7.71933674 eV

  energy without entropy =       -7.71934796  energy(sigma->0) =       -7.71934048


--------------------------------------------------------------------------------------------------------




--------------------------------------- Iteration      1(  17)  ---------------------------------------


    POTLOK:  cpu time    0.0197: real time    0.0198
    SETDIJ:  cpu time    0.0074: real time    0.0075
    TRIAL :  cpu time    0.0305: real time    0.0310
    CORREC:  cpu time    0.0002: real time    0.0002
    CHARGE:  cpu time    0.0121: real time    0.0122
    --------------------------------------------
      LOOP:  cpu time    0.0701: real time    0.0709

 eigenvalue-minimisations  :     0
 total energy-change (2. order) :-0.5374377E-03  (-0.3365993E-03)
 number of electron      17.9999986 magnetization       0.0000000      0.0000000      0.0000000
 augmentation part        6.2100085 magnetization       0.0000000     -0.0000000      0.0000000

 Free energy of the ion-electron system (eV)
  ---------------------------------------------------
  alpha Z        PSCENC =        38.22227472
  Ewald energy   TEWEN  =     -1180.94574891
  -Hartree energ DENC   =      -570.66911230
  -exchange      EXHF   =         0.00000000
  -V(xc)+E(xc)   XCENC  =        30.26562959
  PAW double counting   =      2338.20463657    -2308.40289801
  entropy T*S    EENTRO =        -0.00001987
  eigenvalues    EBANDS =      -101.40512751
  atomic energy  EATOM  =      1747.01046045
  ---------------------------------------------------
  free energy    TOTEN  =        -7.71987418 eV

  energy without entropy =       -7.71985431  energy(sigma->0) =       -7.71986756


--------------------------------------------------------------------------------------------------------




--------------------------------------- Iteration      1(  18)  ---------------------------------------


    POTLOK:  cpu time    0.0197: real time    0.0198
    SETDIJ:  cpu time    0.0074: real time    0.0074
    TRIAL :  cpu time    0.0306: real time    0.0312
    CORREC:  cpu time    0.0002: real time    0.0002
    CHARGE:  cpu time    0.0121: real time    0.0122
    --------------------------------------------
      LOOP:  cpu time    0.0702: real time    0.0710

 eigenvalue-minimisations  :     0
 total energy-change (2. order) :-0.2978006E-03  (-0.1756754E-03)
 number of electron      17.9999986 magnetization       0.0000000     -0.0000000      0.0000000
 augmentation part        6.2097697 magnetization       0.0000000     -0.0000000      0.0000000

 Free energy of the ion-electron system (eV)
  ---------------------------------------------------
  alpha Z        PSCENC =        38.22227472
  Ewald energy   TEWEN  =     -1180.94574891
  -Hartree energ DENC   =      -570.63432414
  -exchange      EXHF   =         0.00000000
  -V(xc)+E(xc)   XCENC  =        30.26424394
  PAW double counting   =      2337.11019861    -2307.30644508
  entropy T*S    EENTRO =        -0.00004018
  eigenvalues    EBANDS =      -101.44081169
  atomic energy  EATOM  =      1747.01046045
  ---------------------------------------------------
  free energy    TOTEN  =        -7.72017198 eV

  energy without entropy =       -7.72013180  energy(sigma->0) =       -7.72015859


--------------------------------------------------------------------------------------------------------




--------------------------------------- Iteration      1(  19)  ---------------------------------------


    POTLOK:  cpu time    0.0195: real time    0.0196
    SETDIJ:  cpu time    0.0076: real time    0.0076
    TRIAL :  cpu time    0.0307: real time    0.0313
    CORREC:  cpu time    0.0002: real time    0.0002
    CHARGE:  cpu time    0.0120: real time    0.0121
    --------------------------------------------
      LOOP:  cpu time    0.0702: real time    0.0710

 eigenvalue-minimisations  :     0
 total energy-change (2. order) :-0.1521548E-03  (-0.8660212E-04)
 number of electron      17.9999986 magnetization      -0.0000000      0.0000000     -0.0000000
 augmentation part        6.2098320 magnetization      -0.0000000      0.0000000     -0.0000000

 Free energy of the ion-electron system (eV)
  ---------------------------------------------------
  alpha Z        PSCENC =        38.22227472
  Ewald energy   TEWEN  =     -1180.94574891
  -Hartree energ DENC   =      -570.61955830
  -exchange      EXHF   =         0.00000000
  -V(xc)+E(xc)   XCENC  =        30.26360052
  PAW double counting   =      2336.21630411    -2306.41190353
  entropy T*S    EENTRO =        -0.00004290
  eigenvalues    EBANDS =      -101.45571301
  atomic energy  EATOM  =      1747.01046045
  ---------------------------------------------------
  free energy    TOTEN  =        -7.72032413 eV

  energy without entropy =       -7.72028123  energy(sigma->0) =       -7.72030983


--------------------------------------------------------------------------------------------------------




--------------------------------------- Iteration      1(  20)  ---------------------------------------


    POTLOK:  cpu time    0.0196: real time    0.0197
    SETDIJ:  cpu time    0.0074: real time    0.0075
    TRIAL :  cpu time    0.0306: real time    0.0312
    CORREC:  cpu time    0.0002: real time    0.0002
    CHARGE:  cpu time    0.0121: real time    0.0121
    --------------------------------------------
      LOOP:  cpu time    0.0701: real time    0.0710

 eigenvalue-minimisations  :     0
 total energy-change (2. order) :-0.6799095E-04  (-0.3128715E-04)
 number of electron      17.9999986 magnetization      -0.0000000     -0.0000000     -0.0000000
 augmentation part        6.2097482 magnetization       0.0000000     -0.0000000     -0.0000000

 Free energy of the ion-electron system (eV)
  ---------------------------------------------------
  alpha Z        PSCENC =        38.22227472
  Ewald energy   TEWEN  =     -1180.94574891
  -Hartree energ DENC   =      -570.63649349
  -exchange      EXHF   =         0.00000000
  -V(xc)+E(xc)   XCENC  =        30.26420105
  PAW double counting   =      2335.48937192    -2305.68625019
  entropy T*S    EENTRO =        -0.00004625
  eigenvalues    EBANDS =      -101.43816478
  atomic energy  EATOM  =      1747.01046045
  ---------------------------------------------------
  free energy    TOTEN  =        -7.72039213 eV

  energy without entropy =       -7.72034588  energy(sigma->0) =       -7.72037671


--------------------------------------------------------------------------------------------------------




--------------------------------------- Iteration      1(  21)  ---------------------------------------


    POTLOK:  cpu time    0.0195: real time    0.0196
    SETDIJ:  cpu time    0.0072: real time    0.0073
    TRIAL :  cpu time    0.0309: real time    0.0316
    CORREC:  cpu time    0.0002: real time    0.0003
    CHARGE:  cpu time    0.0121: real time    0.0122
    --------------------------------------------
      LOOP:  cpu time    0.0701: real time    0.0712

 eigenvalue-minimisations  :     0
 total energy-change (2. order) :-0.3471255E-04  (-0.3079791E-04)
 number of electron      17.9999986 magnetization       0.0000000      0.0000000      0.0000000
 augmentation part        6.2096451 magnetization       0.0000000      0.0000000      0.0000000

 Free energy of the ion-electron system (eV)
  ---------------------------------------------------
  alpha Z        PSCENC =        38.22227472
  Ewald energy   TEWEN  =     -1180.94574891
  -Hartree energ DENC   =      -570.63589816
  -exchange      EXHF   =         0.00000000
  -V(xc)+E(xc)   XCENC  =        30.26414567
  PAW double counting   =      2335.03080180    -2305.22768744
  entropy T*S    EENTRO =        -0.00006454
  eigenvalues    EBANDS =      -101.43872871
  atomic energy  EATOM  =      1747.01046045
  ---------------------------------------------------
  free energy    TOTEN  =        -7.72042684 eV

  energy without entropy =       -7.72036229  energy(sigma->0) =       -7.72040532


--------------------------------------------------------------------------------------------------------




--------------------------------------- Iteration      1(  22)  ---------------------------------------


    POTLOK:  cpu time    0.0194: real time    0.0196
    SETDIJ:  cpu time    0.0077: real time    0.0077
    TRIAL :  cpu time    0.0304: real time    0.0310
    CORREC:  cpu time    0.0002: real time    0.0002
    CHARGE:  cpu time    0.0121: real time    0.0122
    --------------------------------------------
      LOOP:  cpu time    0.0700: real time    0.0708

 eigenvalue-minimisations  :     0
 total energy-change (2. order) :-0.3301357E-04  (-0.2053150E-04)
 number of electron      17.9999986 magnetization       0.0000000     -0.0000000      0.0000000
 augmentation part        6.2096688 magnetization       0.0000000     -0.0000000      0.0000000

 Free energy of the ion-electron system (eV)
  ---------------------------------------------------
  alpha Z        PSCENC =        38.22227472
  Ewald energy   TEWEN  =     -1180.94574891
  -Hartree energ DENC   =      -570.63025259
  -exchange      EXHF   =         0.00000000
  -V(xc)+E(xc)   XCENC  =        30.26391190
  PAW double counting   =      2334.76871040    -2304.96521910
  entropy T*S    EENTRO =        -0.00007568
  eigenvalues    EBANDS =      -101.44453218
  atomic energy  EATOM  =      1747.01046045
  ---------------------------------------------------
  free energy    TOTEN  =        -7.72045985 eV

  energy without entropy =       -7.72038417  energy(sigma->0) =       -7.72043463


--------------------------------------------------------------------------------------------------------




--------------------------------------- Iteration      1(  23)  ---------------------------------------


    POTLOK:  cpu time    0.0196: real time    0.0197
    SETDIJ:  cpu time    0.0075: real time    0.0076
    TRIAL :  cpu time    0.0304: real time    0.0310
    CORREC:  cpu time    0.0002: real time    0.0002
    CHARGE:  cpu time    0.0120: real time    0.0121
    --------------------------------------------
      LOOP:  cpu time    0.0700: real time    0.0708

 eigenvalue-minimisations  :     0
 total energy-change (2. order) :-0.1768316E-04  (-0.8867095E-05)
 number of electron      17.9999986 magnetization       0.0000000     -0.0000000     -0.0000000
 augmentation part        6.2096372 magnetization       0.0000000     -0.0000000     -0.0000000

 Free energy of the ion-electron system (eV)
  ---------------------------------------------------
  alpha Z        PSCENC =        38.22227472
  Ewald energy   TEWEN  =     -1180.94574891
  -Hartree energ DENC   =      -570.63545049
  -exchange      EXHF   =         0.00000000
  -V(xc)+E(xc)   XCENC  =        30.26411248
  PAW double counting   =      2334.60621484    -2304.80298979
  entropy T*S    EENTRO =        -0.00008010
  eigenvalues    EBANDS =      -101.43927514
  atomic energy  EATOM  =      1747.01046045
  ---------------------------------------------------
  free energy    TOTEN  =        -7.72047753 eV

  energy without entropy =       -7.72039744  energy(sigma->0) =       -7.72045084


--------------------------------------------------------------------------------------------------------




--------------------------------------- Iteration      1(  24)  ---------------------------------------


    POTLOK:  cpu time    0.0193: real time    0.0194
    SETDIJ:  cpu time    0.0075: real time    0.0076
    TRIAL :  cpu time    0.0307: real time    0.0312
    CORREC:  cpu time    0.0002: real time    0.0002
    EDDIAG:  cpu time    0.0113: real time    0.0114
    CHARGE:  cpu time    0.0120: real time    0.0121
    --------------------------------------------
      LOOP:  cpu time    0.0813: real time    0.0822

 eigenvalue-minimisations  :     0
 total energy-change (2. order) :-0.7083059E-05  (-0.3346653E-05)
 number of electron      17.9999986 magnetization      -0.0000000     -0.0000000     -0.0000000
 augmentation part        6.2096310 magnetization      -0.0000000     -0.0000000     -0.0000000

 Free energy of the ion-electron system (eV)
  ---------------------------------------------------
  alpha Z        PSCENC =        38.22227472
  Ewald energy   TEWEN  =     -1180.94574891
  -Hartree energ DENC   =      -570.63348704
  -exchange      EXHF   =         0.00000000
  -V(xc)+E(xc)   XCENC  =        30.26403621
  PAW double counting   =      2334.53296799    -2304.72958952
  entropy T*S    EENTRO =        -0.00008160
  eigenvalues    EBANDS =      -101.44131842
  atomic energy  EATOM  =      1747.01046045
  ---------------------------------------------------
  free energy    TOTEN  =        -7.72048462 eV

  energy without entropy =       -7.72040302  energy(sigma->0) =       -7.72045742


--------------------------------------------------------------------------------------------------------


  average scaling for gradient   1.4435


 average (electrostatic) potential at core
  the test charge radii are     1.0774  1.0621
  (the norm of the test charge is              1.0000)
       1 -96.6124       2 -49.6386
 
 
 
 E-fermi :   4.5667     XC(G=0):  -9.0665     alpha+bet :-10.0479


 k-point     1 :       0.0000    0.0000    0.0000
  band No.  band energies     occupation 
      1     -10.3880      1.00000
      2     -10.3880      1.00000
      3     -10.3880      1.00000
      4     -10.3880      1.00000
      5      -9.5957      1.00000
      6      -9.5957      1.00000
      7      -9.5117      1.00000
      8      -9.5117      1.00000
      9      -9.5116      1.00000
     10      -9.5116      1.00000
     11      -7.3713      1.00000
     12      -7.3713      1.00000
     13       4.2241      1.00000
     14       4.2241      1.00000
     15       4.2290      1.00000
     16       4.2290      1.00000
     17       4.5647      0.52989
     18       4.5648      0.52840
     19       4.5648      0.51584
     20       4.5648      0.42588
     21       8.4086      0.00000

 k-point     2 :       0.1429    0.0000    0.0000
  band No.  band energies     occupation 
      1     -10.3928      1.00000
      2     -10.3928      1.00000
      3     -10.3901      1.00000
      4     -10.3828      1.00000
      5      -9.6005      1.00000
      6      -9.6005      1.00000
      7      -9.5211      1.00000
      8      -9.5211      1.00000
      9      -9.5102      1.00000
     10      -9.5013      1.00000
     11      -7.1630      1.00000
     12      -7.1630      1.00000
     13       2.2967      1.00000
     14       2.2967      1.00000
     15       4.0924      1.00000
     16       4.0924      1.00000
     17       4.3213      1.00000
     18       4.3318      1.00000
     19       5.6143     -0.00000
     20       5.6143     -0.00000
     21       8.5430      0.00000

 k-point     3 :       0.2857    0.0000    0.0000
  band No.  band energies     occupation 
      1     -10.4045      1.00000
      2     -10.4045      1.00000
      3     -10.3877      1.00000
      4     -10.3787      1.00000
      5      -9.6099      1.00000
      6      -9.6099      1.00000
      7      -9.5374      1.00000
      8      -9.5374      1.00000
      9      -9.4975      1.00000
     10      -9.4864      1.00000
     11      -6.6131      1.00000
     12      -6.6131      1.00000
     13       0.2976      1.00000
     14       0.2976      1.00000
     15       3.6613      1.00000
     16       3.6613      1.00000
     17       3.8968      1.00000
     18       3.9080      1.00000
     19       5.6258     -0.00000
     20       5.6258     -0.00000
     21       9.1037      0.00000

 k-point     4 :       0.4286    0.0000    0.0000
  band No.  band energies     occupation 
      1     -10.4150      1.00000
      2     -10.4150      1.00000
      3     -10.3829      1.00000
      4     -10.3789      1.00000
      5      -9.6161      1.00000
      6      -9.6161      1.00000
      7      -9.5468      1.00000
      8      -9.5468      1.00000
      9      -9.4829      1.00000
     10      -9.4780      1.00000
     11      -6.0223      1.00000
     12      -6.0223      1.00000
     13      -1.0763      1.00000
     14      -1.0763      1.00000
     15       3.3833      1.00000
     16       3.3833      1.00000
     17       3.6260      1.00000
     18       3.6307      1.00000
     19       5.4239     -0.00000
     20       5.4239     -0.00000
     21       9.0707      0.00000

 k-point     5 :      -0.4286    0.0000    0.0000
  band No.  band energies     occupation 
      1     -10.4150      1.00000
      2     -10.4150      1.00000
      3     -10.3829      1.00000
      4     -10.3789      1.00000
      5      -9.6161      1.00000
      6      -9.6161      1.00000
      7      -9.5468      1.00000
      8      -9.5468      1.00000
      9      -9.4829      1.00000
     10      -9.4780      1.00000
     11      -6.0223      1.00000
     12      -6.0223      1.00000
     13      -1.0763      1.00000
     14      -1.0763      1.00000
     15       3.3833      1.00000
     16       3.3833      1.00000
     17       3.6260      1.00000
     18       3.6307      1.00000
     19       5.4239     -0.00000
     20       5.4239     -0.00000
     21       9.1156      0.00000

 k-point     6 :      -0.2857    0.0000    0.0000
  band No.  band energies     occupation 
      1     -10.4045      1.00000
      2     -10.4045      1.00000
      3     -10.3877      1.00000
      4     -10.3787      1.00000
      5      -9.6099      1.00000
      6      -9.6099      1.00000
      7      -9.5374      1.00000
      8      -9.5374      1.00000
      9      -9.4975      1.00000
     10      -9.4864      1.00000
     11      -6.6131      1.00000
     12      -6.6131      1.00000
     13       0.2976      1.00000
     14       0.2976      1.00000
     15       3.6613      1.00000
     16       3.6613      1.00000
     17       3.8968      1.00000
     18       3.9081      1.00000
     19       5.6258     -0.00000
     20       5.6258     -0.00000
     21       9.0855      0.00000

 k-point     7 :      -0.1429    0.0000    0.0000
[...]
  0.000   0.000   0.001   0.000   0.000   0.000   0.000   0.000  -0.000   0.000   0.000   0.000  -0.001   0.000   0.000   0.000
  0.000   0.000   0.000   0.000   0.000   0.000   0.001   0.000   0.000   0.000   0.000   0.000   0.000   0.000   0.000   0.000
  0.001   0.000   0.000   0.000  -0.000   0.000   0.000   0.000  -0.000   0.000  -0.002   0.000   0.000   0.000  -0.000   0.000
  0.000   0.000   0.001   0.000   0.000   0.000   0.000   0.000  -0.000   0.000   0.000   0.000  -0.002   0.000   0.000   0.000
 total augmentation occupancy for first ion, spin component:           1
  2.000   0.000   0.000  -0.000   0.000   0.010  -0.000  -0.000  -0.000  -0.000  -0.000   0.000  -0.000  -0.095  -0.000   0.000
  0.000   2.000  -0.000   0.000   0.000   0.000   0.010   0.000   0.000   0.000  -0.000  -0.000   0.000   0.000  -0.095  -0.000
 -0.000   0.000   1.998   0.000   0.000   0.000   0.000   0.004  -0.000   0.000  -0.000   0.000   0.000   0.000   0.000  -0.000
 -0.000   0.000   0.000   2.000  -0.000   0.000   0.000  -0.000   0.010  -0.000  -0.000   0.000  -0.095   0.000   0.000   0.052
 -0.000   0.000   0.000  -0.000   1.998   0.000   0.000  -0.000  -0.000   0.004   0.000   0.000   0.000  -0.000   0.000   0.000
  0.010   0.000   0.000   0.000  -0.000   0.037  -0.000   0.000   0.000   0.000   0.000   0.000  -0.000  -0.232   0.000   0.000
  0.000   0.010  -0.000   0.000   0.000  -0.000   0.037   0.000  -0.000   0.000   0.000  -0.000  -0.000  -0.000  -0.232   0.000
 -0.000   0.000   0.004  -0.000   0.000   0.000   0.000   0.011  -0.000   0.000  -0.000   0.000   0.000   0.000   0.000  -0.000
  0.000  -0.000   0.000   0.010   0.000   0.000  -0.000   0.000   0.037   0.000  -0.000   0.000  -0.232  -0.000   0.000   0.051
  0.000   0.000   0.000  -0.000   0.004   0.000  -0.000   0.000  -0.000   0.011   0.000   0.000  -0.000   0.000  -0.000   0.000
  0.000  -0.000  -0.000   0.000   0.000  -0.000   0.000  -0.000   0.000   0.000   6.359  -2.889   0.000   0.000   0.000   0.000
  0.000   0.000   0.000  -0.000   0.000  -0.000   0.000   0.000  -0.000   0.000  -2.889   1.506  -0.000  -0.000   0.000   0.000
 -0.000  -0.000   0.000  -0.095  -0.000   0.000   0.000  -0.000  -0.232  -0.000  -0.000   0.000   2.599   0.000   0.000  -0.594
 -0.095   0.000   0.000  -0.000   0.000  -0.232   0.000   0.000  -0.000   0.000  -0.000  -0.000   0.000   2.599   0.000   0.000
  0.000  -0.095   0.000   0.000   0.000  -0.000  -0.232   0.000   0.000  -0.000  -0.000   0.000   0.000   0.000   2.599   0.000
  0.000  -0.000  -0.000   0.052   0.000   0.000   0.000  -0.000   0.051  -0.000   0.000  -0.000  -0.594   0.000   0.000   0.152
  0.052  -0.000  -0.000   0.000  -0.000   0.051  -0.000   0.000   0.000   0.000   0.000  -0.000   0.000  -0.594  -0.000   0.000
  0.000   0.052   0.000  -0.000  -0.000  -0.000   0.051  -0.000   0.000   0.000   0.000   0.000   0.000  -0.000  -0.594   0.000
 total augmentation occupancy for first ion, spin component:           2
  0.000   0.000   0.000   0.000  -0.000  -0.000   0.000   0.000  -0.000  -0.000   0.000   0.000  -0.000  -0.000  -0.000   0.000
  0.000  -0.000  -0.000   0.000  -0.000   0.000   0.000  -0.000   0.000  -0.000  -0.000   0.000   0.000   0.000   0.000  -0.000
  0.000  -0.000   0.000   0.000  -0.000  -0.000  -0.000  -0.000   0.000   0.000   0.000   0.000  -0.000  -0.000   0.000   0.000
 -0.000  -0.000   0.000   0.000  -0.000   0.000   0.000   0.000   0.000  -0.000  -0.000  -0.000  -0.000   0.000  -0.000   0.000
  0.000  -0.000   0.000   0.000  -0.000  -0.000  -0.000   0.000  -0.000  -0.000  -0.000   0.000   0.000   0.000   0.000   0.000
  0.000   0.000   0.000   0.000  -0.000   0.000   0.000   0.000  -0.000   0.000  -0.000   0.000  -0.000   0.000  -0.000   0.000
  0.000   0.000  -0.000   0.000  -0.000  -0.000   0.000   0.000   0.000   0.000   0.000   0.000  -0.000   0.000  -0.000   0.000
 -0.000  -0.000  -0.000  -0.000  -0.000  -0.000   0.000   0.000  -0.000   0.000  -0.000   0.000   0.000   0.000   0.000   0.000
 -0.000   0.000   0.000   0.000   0.000   0.000   0.000  -0.000   0.000  -0.000  -0.000   0.000  -0.000   0.000   0.000   0.000
 -0.000  -0.000   0.000   0.000  -0.000   0.000   0.000   0.000  -0.000   0.000  -0.000  -0.000   0.000  -0.000   0.000   0.000
 -0.000   0.000  -0.000   0.000  -0.000   0.000   0.000   0.000  -0.000  -0.000   0.000  -0.000  -0.000  -0.000   0.000  -0.000
  0.000   0.000  -0.000  -0.000  -0.000   0.000   0.000   0.000   0.000   0.000   0.000   0.000   0.000   0.000   0.000   0.000
 -0.000   0.000  -0.000   0.000   0.000  -0.000  -0.000   0.000   0.000  -0.000   0.000   0.000   0.000  -0.000   0.000   0.000
 -0.000   0.000  -0.000   0.000   0.000  -0.000   0.000   0.000   0.000   0.000  -0.000  -0.000   0.000   0.000  -0.000  -0.000
 -0.000  -0.000   0.000   0.000   0.000   0.000  -0.000   0.000   0.000   0.000   0.000   0.000  -0.000  -0.000   0.000   0.000
  0.000   0.000  -0.000  -0.000   0.000   0.000  -0.000  -0.000   0.000  -0.000   0.000   0.000  -0.000  -0.000   0.000   0.000
  0.000   0.000   0.000  -0.000  -0.000  -0.000   0.000   0.000  -0.000  -0.000   0.000   0.000   0.000   0.000   0.000   0.000
 -0.000   0.000  -0.000   0.000  -0.000   0.000   0.000  -0.000   0.000  -0.000   0.000   0.000  -0.000   0.000   0.000   0.000
 total augmentation occupancy for first ion, spin component:           3
  0.000  -0.000  -0.000  -0.000  -0.000   0.000   0.000   0.000   0.000   0.000  -0.000  -0.000  -0.000   0.000   0.000  -0.000
  0.000  -0.000   0.000  -0.000  -0.000  -0.000  -0.000  -0.000   0.000  -0.000   0.000   0.000   0.000  -0.000  -0.000   0.000
  0.000  -0.000  -0.000   0.000   0.000   0.000   0.000   0.000   0.000   0.000  -0.000  -0.000  -0.000  -0.000  -0.000   0.000
  0.000  -0.000   0.000   0.000  -0.000  -0.000   0.000   0.000   0.000  -0.000  -0.000   0.000   0.000  -0.000  -0.000   0.000
 -0.000  -0.000  -0.000  -0.000   0.000   0.000  -0.000   0.000  -0.000  -0.000  -0.000   0.000   0.000  -0.000  -0.000  -0.000
 -0.000  -0.000   0.000  -0.000   0.000  -0.000   0.000   0.000  -0.000   0.000   0.000   0.000  -0.000   0.000   0.000   0.000
  0.000   0.000  -0.000   0.000  -0.000  -0.000  -0.000  -0.000  -0.000  -0.000   0.000   0.000   0.000  -0.000  -0.000   0.000
  0.000   0.000  -0.000   0.000   0.000   0.000   0.000  -0.000  -0.000   0.000  -0.000   0.000  -0.000   0.000   0.000   0.000
 -0.000  -0.000   0.000   0.000  -0.000   0.000  -0.000  -0.000   0.000   0.000   0.000   0.000   0.000   0.000   0.000   0.000
 -0.000  -0.000   0.000  -0.000   0.000  -0.000   0.000   0.000   0.000   0.000  -0.000  -0.000   0.000   0.000   0.000  -0.000
  0.000   0.000   0.000   0.000  -0.000   0.000  -0.000  -0.000   0.000  -0.000   0.000   0.000   0.000  -0.000  -0.000   0.000
 -0.000   0.000  -0.000   0.000   0.000   0.000  -0.000   0.000   0.000   0.000   0.000   0.000   0.000   0.000   0.000   0.000
  0.000   0.000  -0.000   0.000   0.000  -0.000  -0.000  -0.000   0.000   0.000   0.000   0.000   0.000   0.000  -0.000   0.000
  0.000  -0.000   0.000   0.000  -0.000   0.000  -0.000   0.000   0.000  -0.000  -0.000  -0.000  -0.000  -0.000  -0.000   0.000
  0.000  -0.000  -0.000  -0.000   0.000   0.000  -0.000   0.000  -0.000  -0.000  -0.000  -0.000  -0.000   0.000   0.000  -0.000
 -0.000  -0.000   0.000   0.000  -0.000   0.000   0.000   0.000   0.000  -0.000   0.000   0.000   0.000  -0.000  -0.000  -0.000
 -0.000   0.000   0.000  -0.000   0.000  -0.000   0.000   0.000   0.000  -0.000   0.000  -0.000  -0.000   0.000  -0.000   0.000
 -0.000   0.000  -0.000   0.000   0.000  -0.000  -0.000  -0.000   0.000   0.000   0.000  -0.000   0.000   0.000   0.000  -0.000
 total augmentation occupancy for first ion, spin component:           4
  0.000   0.000   0.000   0.000   0.000   0.000   0.000   0.000   0.000   0.000  -0.000   0.000  -0.000  -0.000  -0.000  -0.000
 -0.000   0.000   0.000  -0.000  -0.000  -0.000  -0.000  -0.000   0.000   0.000  -0.000  -0.000   0.000   0.000  -0.000  -0.000
  0.000   0.000   0.000   0.000   0.000   0.000   0.000   0.000   0.000   0.000   0.000  -0.000   0.000   0.000   0.000   0.000
  0.000   0.000   0.000  -0.000  -0.000  -0.000  -0.000  -0.000  -0.000  -0.000   0.000   0.000   0.000  -0.000  -0.000  -0.000
  0.000   0.000   0.000  -0.000   0.000   0.000  -0.000   0.000  -0.000   0.000  -0.000   0.000  -0.000  -0.000   0.000   0.000
 -0.000   0.000   0.000   0.000   0.000   0.000   0.000   0.000  -0.000  -0.000   0.000   0.000  -0.000   0.000  -0.000   0.000
  0.000  -0.000   0.000  -0.000  -0.000   0.000   0.000  -0.000   0.000   0.000  -0.000  -0.000   0.000   0.000   0.000  -0.000
 -0.000  -0.000   0.000  -0.000   0.000   0.000  -0.000   0.000   0.000   0.000   0.000   0.000  -0.000   0.000   0.000  -0.000
  0.000   0.000   0.000   0.000  -0.000  -0.000  -0.000  -0.000  -0.000   0.000   0.000   0.000  -0.000   0.000  -0.000   0.000
  0.000   0.000   0.000   0.000  -0.000  -0.000   0.000   0.000   0.000   0.000  -0.000  -0.000   0.000  -0.000  -0.000  -0.000
 -0.000   0.000   0.000   0.000  -0.000   0.000   0.000   0.000  -0.000  -0.000   0.000   0.000  -0.000   0.000   0.000   0.000
 -0.000  -0.000   0.000  -0.000   0.000   0.000   0.000   0.000   0.000   0.000   0.000   0.000  -0.000   0.000   0.000   0.000
 -0.000   0.000   0.000  -0.000  -0.000  -0.000   0.000  -0.000  -0.000  -0.000  -0.000   0.000   0.000  -0.000   0.000  -0.000
  0.000  -0.000   0.000  -0.000  -0.000  -0.000   0.000   0.000   0.000  -0.000   0.000   0.000  -0.000   0.000  -0.000  -0.000
  0.000   0.000  -0.000  -0.000   0.000   0.000  -0.000   0.000  -0.000   0.000  -0.000   0.000  -0.000  -0.000  -0.000   0.000
  0.000  -0.000  -0.000  -0.000  -0.000  -0.000  -0.000   0.000  -0.000  -0.000  -0.000   0.000   0.000   0.000   0.000   0.000
 -0.000  -0.000   0.000  -0.000   0.000  -0.000   0.000   0.000   0.000   0.000   0.000   0.000   0.000   0.000   0.000  -0.000
 -0.000   0.000  -0.000   0.000   0.000  -0.000   0.000   0.000   0.000   0.000   0.000  -0.000  -0.000   0.000   0.000  -0.000


------------------------ aborting loop because EDIFF is reached ----------------------------------------


 


 total charge     
 
# of ion       s       p       d       tot
------------------------------------------
    1        0.848   0.730   9.888  11.466
    2        1.220   1.570   0.022   2.812
--------------------------------------------------
tot          2.068   2.300   9.910  14.278
 


 magnetization (x)
 
# of ion       s       p       d       tot
------------------------------------------
    1        0.002  -0.003   0.000  -0.001
    2       -0.001   0.003  -0.000   0.002
--------------------------------------------------
tot          0.001  -0.000   0.000   0.001
 


 magnetization (y)
 
# of ion       s       p       d       tot
------------------------------------------
    1        0.004  -0.005   0.000  -0.001
    2       -0.002   0.006  -0.000   0.004
--------------------------------------------------
tot          0.002   0.001   0.000   0.003
 


 magnetization (z)
 
# of ion       s       p       d       tot
------------------------------------------
    1       -0.000   0.000  -0.000  -0.000
    2        0.000   0.000   0.000   0.000
--------------------------------------------------
tot         -0.000   0.000  -0.000   0.000
 
    FORLOC:  cpu time    0.0005: real time    0.0005
    FORNL :  cpu time    0.0131: real time    0.0132
    STRESS:  cpu time    0.0601: real time    0.0605
    FORCOR:  cpu time    0.0189: real time    0.0193
    OFIELD:  cpu time    0.0004: real time    0.0004

  FORCE on cell =-STRESS in cart. coord.  units (eV):
  Direction    XX          YY          ZZ          XY          YZ          ZX
  --------------------------------------------------------------------------------------
  Alpha Z    38.22227    38.22227    38.22227
  Ewald    -393.64871  -393.64871  -393.64871    -0.00000    -0.00000     0.00000
  Hartree   190.21121   190.21121   190.21121     0.00000     0.00000     0.00000
  E(xc)     -85.15878   -85.15878   -85.15878     0.00001     0.00001     0.00001
  Local    -133.08162  -133.08162  -133.08162     0.00014     0.00014     0.00014
  n-local    79.46396    80.09134    76.27259     1.59737    -0.48601     0.16619
  augment   157.75741   157.75741   157.75741    -0.00009    -0.00009    -0.00009
  Kinetic   150.21934   149.74492   145.03951     3.72828    -0.92032     0.55771
  Fock        0.00000     0.00000     0.00000     0.00000     0.00000     0.00000
  -------------------------------------------------------------------------------------
  Total       1.24567     1.24567     1.24567     0.00000     0.00000     0.00000
  in kB      35.90056    35.90056    35.90056     0.00000     0.00000     0.00000
  external pressure =       35.90 kB  Pullay stress =        0.00 kB


 VOLUME and BASIS-vectors are now :
 -----------------------------------------------------------------------------
  energy-cutoff  :      400.00
  volume of cell :       55.59
      direct lattice vectors                 reciprocal lattice vectors
     0.000000000  3.029200000  3.029200000    -0.165060082  0.165060082  0.165060082
     3.029200000  0.000000000  3.029200000     0.165060082 -0.165060082  0.165060082
     3.029200000  3.029200000  0.000000000     0.165060082  0.165060082 -0.165060082

  length of vectors
     4.283935723  4.283935723  4.283935723     0.285892448  0.285892448  0.285892448


 FORCES acting on ions:
    Electron-Ion                     Ewald-Force                    Non-Local-Force
 -----------------------------------------------------------------------------------------------
   -.502E-06 -.502E-06 -.502E-06   -.172E-13 -.156E-13 -.147E-13   -.694E-16 -.694E-16 -.104E-15
   0.786E-07 0.786E-07 0.786E-07   0.168E-13 0.159E-13 0.132E-13   0.486E-16 0.347E-16 0.416E-16
 -----------------------------------------------------------------------------------------------
   -.194E-06 -.194E-06 -.194E-06   -.333E-15 0.285E-15 -.153E-14   -.208E-16 -.347E-16 -.625E-16
 
 
 POSITION                                       TOTAL-FORCE (eV/Angst)
 -----------------------------------------------------------------------------------
      0.00000      0.00000      0.00000         0.000000      0.000000      0.000000
      4.54380      4.54380      4.54380        -0.000000     -0.000000     -0.000000
 -----------------------------------------------------------------------------------
    total drift:                               -0.000000     -0.000000     -0.000000


--------------------------------------------------------------------------------------------------------



  FREE ENERGIE OF THE ION-ELECTRON SYSTEM (eV)
  ---------------------------------------------------
  free  energy   TOTEN  =        -7.72048462 eV

  energy  without entropy=       -7.72040302  energy(sigma->0) =       -7.72045742
 


--------------------------------------------------------------------------------------------------------


    POTLOK:  cpu time    0.0277: real time    0.0279


--------------------------------------------------------------------------------------------------------


 writing wavefunctions
     LOOP+:  cpu time    2.3586: real time    3.1495
    4ORBIT:  cpu time    0.0000: real time    0.0000

 Spin-Orbit-Coupling matrix elements

 Ion:    1  E_soc:     -0.0727845
 l=   1
     0.0000000    -0.0057047    -0.0057047
    -0.0057047     0.0000000    -0.0057047
    -0.0057047    -0.0057047     0.0000000
 l=   2
     0.0000000    -0.0012947     0.0000000    -0.0012947    -0.0051313
    -0.0012947     0.0000000    -0.0038485    -0.0012947    -0.0012828
     0.0000000    -0.0038485     0.0000000    -0.0038485     0.0000000
    -0.0012947    -0.0012947    -0.0038485     0.0000000    -0.0012828
    -0.0051313    -0.0012828     0.0000000    -0.0012828     0.0000000
 l=   3
     0.0000000     0.0000000     0.0000000     0.0000000     0.0000000     0.0000000     0.0000000
     0.0000000     0.0000000     0.0000000     0.0000000     0.0000000     0.0000000     0.0000000
     0.0000000     0.0000000     0.0000000     0.0000000     0.0000000     0.0000000     0.0000000
     0.0000000     0.0000000     0.0000000     0.0000000     0.0000000     0.0000000     0.0000000
     0.0000000     0.0000000     0.0000000     0.0000000     0.0000000     0.0000000     0.0000000
     0.0000000     0.0000000     0.0000000     0.0000000     0.0000000     0.0000000     0.0000000
     0.0000000     0.0000000     0.0000000     0.0000000     0.0000000     0.0000000     0.0000000

 Ion:    2  E_soc:     -0.0263281
 l=   1
     0.0000000    -0.0043861    -0.0043861
    -0.0043861     0.0000000    -0.0043861
    -0.0043861    -0.0043861     0.0000000
 l=   2
     0.0000000    -0.0000008     0.0000000    -0.0000008    -0.0000011
    -0.0000008     0.0000000    -0.0000008    -0.0000008    -0.0000003
     0.0000000    -0.0000008     0.0000000    -0.0000008     0.0000000
    -0.0000008    -0.0000008    -0.0000008     0.0000000    -0.0000003
    -0.0000011    -0.0000003     0.0000000    -0.0000003     0.0000000
 l=   3
     0.0000000     0.0000000     0.0000000     0.0000000     0.0000000     0.0000000     0.0000000
     0.0000000     0.0000000     0.0000000     0.0000000     0.0000000     0.0000000     0.0000000
     0.0000000     0.0000000     0.0000000     0.0000000     0.0000000     0.0000000     0.0000000
     0.0000000     0.0000000     0.0000000     0.0000000     0.0000000     0.0000000     0.0000000
     0.0000000     0.0000000     0.0000000     0.0000000     0.0000000     0.0000000     0.0000000
     0.0000000     0.0000000     0.0000000     0.0000000     0.0000000     0.0000000     0.0000000
     0.0000000     0.0000000     0.0000000     0.0000000     0.0000000     0.0000000     0.0000000
 


 total charge     
 
# of ion       s       p       d       tot
------------------------------------------
    1        0.848   0.730   9.888  11.466
    2        1.220   1.570   0.022   2.812
--------------------------------------------------
tot          2.068   2.300   9.910  14.278
 


 magnetization (x)
 
# of ion       s       p       d       tot
------------------------------------------
    1        0.002  -0.003   0.000  -0.001
    2       -0.001   0.003  -0.000   0.002
--------------------------------------------------
tot          0.001  -0.000   0.000   0.001
 


 magnetization (y)
 
# of ion       s       p       d       tot
------------------------------------------
    1        0.004  -0.005   0.000  -0.001
    2       -0.002   0.006  -0.000   0.004
--------------------------------------------------
tot          0.002   0.001   0.000   0.003
 


 magnetization (z)
 
# of ion       s       p       d       tot
------------------------------------------
    1       -0.000   0.000  -0.000  -0.000
    2        0.000   0.000   0.000   0.000
--------------------------------------------------
tot         -0.000   0.000  -0.000   0.000
 

 total amount of memory used by VASP MPI-rank0    45585. kBytes
=======================================================================

   base      :      30000. kBytes
   nonl-proj :       3069. kBytes
   fftplans  :       1050. kBytes
   grid      :       3907. kBytes
   one-center:         62. kBytes
   wavefun   :       7497. kBytes
 
  
  
 General timing and accounting informations for this job:
 ========================================================
  
                  Total CPU time used (sec):        4.140
                            User time (sec):        3.333
                          System time (sec):        0.807
                         Elapsed time (sec):        6.627
  
                   Maximum memory used (kb):      185544.
                   Average memory used (kb):           0.
  
                          Minor page faults:        24119
                          Major page faults:            0
                 Voluntary context switches:         4400
