PROCAR lm decomposed
# of k-points:   30         # of bands:   21         # of ions:    2

 k-point     1 :    0.00000000 0.00000000 0.00000000     weight = 0.00291545

band     1 # energy  -10.38802252 # occ.  1.00000000
 
ion      s     py     pz     px    dxy    dyz    dz2    dxz  x2-y2    tot
    1  0.000  0.000  0.000  0.000  0.215  0.215  0.164  0.215  0.164  0.973
    2  0.000  0.001  0.001  0.001  0.000  0.000  0.000  0.000  0.000  0.003
tot    0.000  0.001  0.001  0.001  0.215  0.215  0.165  0.215  0.164  0.977
    1  0.000  0.000 -0.000 -0.000 -0.190 -0.097 -0.109  0.022  0.146 -0.230
    2  0.000  0.000 -0.001 -0.000 -0.000 -0.000 -0.000  0.000  0.000 -0.001
tot    0.000  0.000 -0.001 -0.000 -0.190 -0.098 -0.109  0.022  0.146 -0.231
    1 -0.000  0.000  0.000  0.000  0.097  0.022  0.111  0.191 -0.074  0.346
    2  0.000  0.001  0.000  0.000  0.000  0.000  0.000  0.000 -0.000  0.002
tot   -0.000  0.001  0.000  0.000  0.097  0.022  0.111  0.191 -0.074  0.348
    1 -0.000  0.000 -0.000 -0.000 -0.021 -0.190  0.053  0.097 -0.016 -0.078
    2  0.000  0.000 -0.000 -0.001 -0.000 -0.000  0.000  0.000 -0.000 -0.001
tot   -0.000  0.000 -0.000 -0.001 -0.021 -0.190  0.053  0.097 -0.016 -0.079
 
band     2 # energy  -10.38802243 # occ.  1.00000000
 
ion      s     py     pz     px    dxy    dyz    dz2    dxz  x2-y2    tot
    1  0.000  0.000  0.000  0.000  0.215  0.215  0.164  0.215  0.164  0.973
    2  0.000  0.001  0.001  0.001  0.000  0.000  0.000  0.000  0.000  0.003
tot    0.000  0.001  0.001  0.001  0.215  0.215  0.164  0.215  0.164  0.977
    1 -0.000 -0.000  0.000  0.000  0.190  0.098  0.109 -0.021 -0.146  0.231
    2 -0.000 -0.000  0.001  0.000  0.000  0.000  0.000 -0.000 -0.000  0.001
tot   -0.000 -0.000  0.001  0.000  0.191  0.098  0.109 -0.021 -0.146  0.232
    1  0.000 -0.000 -0.000 -0.000 -0.097 -0.022 -0.111 -0.191  0.074 -0.347
    2 -0.000 -0.001 -0.000 -0.000 -0.000 -0.000 -0.000 -0.000  0.000 -0.002
tot    0.000 -0.001 -0.000 -0.000 -0.097 -0.022 -0.111 -0.191  0.074 -0.348
    1  0.000 -0.000  0.000  0.000  0.021  0.190 -0.053 -0.096  0.016  0.078
    2  0.000 -0.000  0.000  0.001  0.000  0.000 -0.000 -0.000  0.000  0.001
tot    0.000 -0.000  0.000  0.001  0.021  0.190 -0.053 -0.096  0.016  0.078
 
band     3 # energy  -10.38801481 # occ.  1.00000000
 
ion      s     py     pz     px    dxy    dyz    dz2    dxz  x2-y2    tot
    1  0.000  0.000  0.000  0.000  0.215  0.215  0.164  0.215  0.164  0.973
    2  0.000  0.001  0.001  0.001  0.000  0.000  0.000  0.000  0.000  0.003
tot    0.000  0.001  0.001  0.001  0.215  0.215  0.164  0.215  0.164  0.977
    1 -0.000 -0.000  0.000  0.000  0.148  0.044  0.137 -0.149 -0.113  0.067
    2  0.000 -0.001  0.001  0.000  0.000  0.000  0.000 -0.000 -0.000  0.000
tot   -0.000 -0.001  0.001  0.000  0.148  0.044  0.137 -0.149 -0.113  0.067
    1  0.000  0.000 -0.000  0.000 -0.149  0.149 -0.090  0.046  0.114  0.069
    2 -0.000  0.000 -0.001  0.001 -0.000  0.000 -0.000  0.000  0.000  0.000
tot    0.000  0.000 -0.001  0.001 -0.149  0.149 -0.090  0.046  0.114  0.069
    1  0.000  0.000  0.000 -0.000  0.045 -0.148 -0.011  0.147  0.035  0.068
    2  0.000  0.001  0.000 -0.001  0.000 -0.000 -0.000  0.000  0.000  0.000
tot    0.000  0.001  0.000 -0.001  0.045 -0.148 -0.011  0.147  0.035  0.068
 
band     4 # energy  -10.38801481 # occ.  1.00000000
 
ion      s     py     pz     px    dxy    dyz    dz2    dxz  x2-y2    tot
    1  0.000  0.000  0.000  0.000  0.215  0.215  0.164  0.215  0.164  0.973
    2  0.000  0.001  0.001  0.001  0.000  0.000  0.000  0.000  0.000  0.003
tot    0.000  0.001  0.001  0.001  0.215  0.215  0.164  0.215  0.165  0.977
    1  0.000  0.000 -0.000 -0.000 -0.149 -0.045 -0.137  0.149  0.114 -0.068
    2 -0.000  0.001 -0.001 -0.000 -0.000 -0.000 -0.000  0.000  0.000 -0.000
tot    0.000  0.001 -0.001 -0.000 -0.149 -0.045 -0.137  0.149  0.114 -0.068
    1  0.000 -0.000  0.000 -0.000  0.149 -0.148  0.090 -0.046 -0.114 -0.069
    2  0.000 -0.000  0.001 -0.001  0.000 -0.000  0.000 -0.000 -0.000 -0.000
tot    0.000 -0.000  0.001 -0.001  0.149 -0.148  0.090 -0.046 -0.114 -0.069
    1 -0.000 -0.000 -0.000  0.000 -0.045  0.149  0.011 -0.148 -0.035 -0.068
    2 -0.000 -0.001 -0.000  0.001 -0.000  0.000  0.000 -0.000 -0.000 -0.000
tot   -0.000 -0.001 -0.000  0.001 -0.045  0.149  0.011 -0.148 -0.035 -0.068
 
band     5 # energy   -9.59573045 # occ.  1.00000000
 
ion      s     py     pz     px    dxy    dyz    dz2    dxz  x2-y2    tot
    1  0.000  0.000  0.000  0.000  0.323  0.323  0.000  0.323  0.000  0.968
    2  0.000  0.002  0.002  0.002  0.000  0.000  0.000  0.000  0.000  0.006
tot    0.000  0.002  0.002  0.002  0.323  0.323  0.000  0.323  0.000  0.974
    1 -0.000  0.000  0.000 -0.000  0.119 -0.119 -0.000  0.119  0.000  0.119
    2  0.000  0.001  0.001 -0.001  0.000 -0.000 -0.000  0.000  0.000  0.001
tot   -0.000  0.001  0.001 -0.001  0.119 -0.119 -0.000  0.119  0.000  0.120
    1 -0.000 -0.000  0.000  0.000  0.027  0.027 -0.000 -0.027  0.000  0.027
    2 -0.000 -0.000  0.000  0.000  0.000  0.000 -0.000 -0.000  0.000  0.000
tot   -0.000 -0.000  0.000  0.000  0.027  0.027 -0.000 -0.027  0.000  0.027
    1  0.000 -0.000  0.000 -0.000  0.299 -0.299  0.000 -0.299 -0.000 -0.299
    2 -0.000 -0.002  0.002 -0.002  0.000 -0.000  0.000 -0.000 -0.000 -0.002
tot    0.000 -0.002  0.002 -0.002  0.299 -0.299  0.000 -0.299 -0.000 -0.301
 
band     6 # energy   -9.59573042 # occ.  1.00000000
 
ion      s     py     pz     px    dxy    dyz    dz2    dxz  x2-y2    tot
    1  0.000  0.000  0.000  0.000  0.323  0.323  0.000  0.323  0.000  0.968
    2  0.000  0.002  0.002  0.002  0.000  0.000  0.000  0.000  0.000  0.006
tot    0.000  0.002  0.002  0.002  0.323  0.323  0.000  0.323  0.000  0.974
    1  0.000 -0.000 -0.000  0.000 -0.119  0.119  0.000 -0.119 -0.000 -0.119
    2  0.000 -0.001 -0.001  0.001 -0.000  0.000  0.000 -0.000 -0.000 -0.001
tot    0.000 -0.001 -0.001  0.001 -0.119  0.119  0.000 -0.119 -0.000 -0.120
    1  0.000  0.000 -0.000 -0.000 -0.027 -0.027  0.000  0.027 -0.000 -0.027
    2  0.000  0.000 -0.000 -0.000 -0.000 -0.000  0.000  0.000 -0.000 -0.000
tot    0.000  0.000 -0.000 -0.000 -0.027 -0.027  0.000  0.027 -0.000 -0.027
    1 -0.000  0.000 -0.000  0.000 -0.299  0.299 -0.000  0.299  0.000  0.299
    2 -0.000  0.002 -0.002  0.002 -0.000  0.000 -0.000  0.000  0.000  0.002
tot   -0.000  0.002 -0.002  0.002 -0.299  0.299 -0.000  0.299  0.000  0.301
 
band     7 # energy   -9.51165243 # occ.  1.00000000
 
ion      s     py     pz     px    dxy    dyz    dz2    dxz  x2-y2    tot
    1  0.000  0.000  0.000  0.000  0.108  0.109  0.327  0.108  0.325  0.976
    2  0.000  0.001  0.001  0.001  0.000  0.000  0.000  0.000  0.000  0.002
tot    0.000  0.001  0.001  0.001  0.108  0.109  0.327  0.108  0.325  0.979
    1  0.000 -0.000 -0.000  0.000 -0.015  0.093  0.280 -0.054  0.044  0.349
    2  0.000 -0.000 -0.000  0.001 -0.000  0.000  0.000 -0.000  0.000  0.000
tot    0.000 -0.000 -0.000  0.001 -0.015  0.093  0.280 -0.054  0.044  0.349
    1 -0.000  0.000 -0.000 -0.000 -0.053 -0.015  0.162  0.093  0.161  0.347
    2 -0.000  0.001 -0.000 -0.000 -0.000 -0.000  0.000  0.000  0.000  0.000
tot   -0.000  0.001 -0.000 -0.000 -0.053 -0.015  0.163  0.093  0.161  0.348
    1  0.000 -0.000  0.000 -0.000  0.093 -0.054  0.045 -0.015  0.279  0.347
    2 -0.000 -0.000  0.001 -0.000  0.000 -0.000  0.000 -0.000  0.000  0.000
tot    0.000 -0.000  0.001 -0.000  0.093 -0.054  0.045 -0.015  0.279  0.348
 
band     8 # energy   -9.51165239 # occ.  1.00000000
 
ion      s     py     pz     px    dxy    dyz    dz2    dxz  x2-y2    tot
    1  0.000  0.000  0.000  0.000  0.107  0.108  0.329  0.109  0.323  0.976
    2  0.000  0.001  0.001  0.001  0.000  0.000  0.000  0.000  0.000  0.002
tot    0.000  0.001  0.001  0.001  0.107  0.108  0.329  0.109  0.323  0.979
    1 -0.000  0.000  0.000 -0.000  0.014 -0.093 -0.280  0.054 -0.043 -0.348
    2 -0.000  0.000  0.000 -0.001  0.000 -0.000 -0.000  0.000 -0.000 -0.000
tot   -0.000  0.000  0.000 -0.001  0.014 -0.093 -0.281  0.054 -0.044 -0.349
    1  0.000 -0.000  0.000  0.000  0.054  0.016 -0.166 -0.094 -0.164 -0.354
    2  0.000 -0.001  0.000  0.000  0.000  0.000 -0.000 -0.000 -0.000 -0.000
tot    0.000 -0.001  0.000  0.000  0.054  0.016 -0.166 -0.094 -0.164 -0.354
    1 -0.000  0.000 -0.000  0.000 -0.091  0.053 -0.042  0.014 -0.275 -0.342
    2  0.000  0.000 -0.001  0.000 -0.000  0.000 -0.000  0.000 -0.000 -0.000
tot   -0.000  0.000 -0.001  0.000 -0.091  0.053 -0.042  0.014 -0.275 -0.342
 
band     9 # energy   -9.51164751 # occ.  1.00000000
 
ion      s     py     pz     px    dxy    dyz    dz2    dxz  x2-y2    tot
    1  0.000  0.000  0.000  0.000  0.109  0.108  0.324  0.108  0.327  0.976
    2  0.000  0.001  0.001  0.001  0.000  0.000  0.000  0.000  0.000  0.002
tot    0.000  0.001  0.001  0.001  0.109  0.108  0.324  0.108  0.328  0.979
    1 -0.000  0.000  0.000 -0.000  0.048 -0.088 -0.209  0.040 -0.145 -0.353
    2  0.000  0.000  0.000 -0.001  0.000 -0.000 -0.000  0.000 -0.000 -0.000
tot   -0.000  0.000  0.000 -0.001  0.048 -0.088 -0.209  0.040 -0.145 -0.354
    1  0.000 -0.000  0.000  0.000  0.088  0.041 -0.089 -0.048 -0.266 -0.273
    2  0.000 -0.000  0.001  0.000  0.000  0.000 -0.000 -0.000 -0.000  0.000
tot    0.000 -0.000  0.001  0.000  0.088  0.041 -0.089 -0.048 -0.266 -0.273
    1  0.000  0.000 -0.000  0.000 -0.041  0.048 -0.231  0.088 -0.124 -0.261
    2 -0.000  0.001 -0.000  0.000 -0.000  0.000 -0.000  0.000 -0.000  0.000
tot    0.000  0.001 -0.000  0.000 -0.041  0.048 -0.231  0.088 -0.125 -0.261
 
band    10 # energy   -9.51164744 # occ.  1.00000000
 
ion      s     py     pz     px    dxy    dyz    dz2    dxz  x2-y2    tot
    1  0.000  0.000  0.000  0.000  0.109  0.108  0.323  0.108  0.328  0.976
    2  0.000  0.001  0.001  0.001  0.000  0.000  0.000  0.000  0.000  0.002
tot    0.000  0.001  0.001  0.001  0.109  0.108  0.323  0.108  0.328  0.979
    1 -0.000 -0.000 -0.000  0.000 -0.048  0.088  0.209 -0.041  0.144  0.353
    2  0.000 -0.000 -0.000  0.001 -0.000  0.000  0.000 -0.000  0.000  0.000
tot   -0.000 -0.000 -0.000  0.001 -0.048  0.088  0.209 -0.041  0.144  0.353
    1 -0.000  0.000 -0.000 -0.000 -0.089 -0.042  0.093  0.049  0.269  0.280
    2 -0.000  0.000 -0.001 -0.000 -0.000 -0.000  0.000  0.000  0.000 -0.000
tot   -0.000  0.000 -0.001 -0.000 -0.089 -0.042  0.093  0.049  0.269  0.280
    1 -0.000 -0.000  0.000 -0.000  0.040 -0.047  0.228 -0.087  0.121  0.255
    2 -0.000 -0.001  0.000 -0.000  0.000 -0.000  0.000 -0.000  0.000 -0.000
tot   -0.000 -0.001  0.000 -0.000  0.040 -0.047  0.228 -0.087  0.121  0.255
 
band    11 # energy   -7.37128967 # occ.  1.00000000
 
ion      s     py     pz     px    dxy    dyz    dz2    dxz  x2-y2    tot
    1  0.157  0.000  0.000  0.000  0.000  0.000  0.000  0.000  0.000  0.157
    2  0.450  0.000  0.000  0.000  0.000  0.000  0.000  0.000  0.000  0.450
tot    0.607  0.000  0.000  0.000  0.000  0.000  0.000  0.000  0.000  0.607
    1  0.108  0.000 -0.000 -0.000 -0.000  0.000  0.000  0.000  0.000  0.108
    2  0.311 -0.000 -0.000  0.000  0.000 -0.000  0.000  0.000 -0.000  0.311
tot    0.420  0.000 -0.000 -0.000 -0.000  0.000  0.000  0.000  0.000  0.420
    1 -0.077  0.000  0.000 -0.000 -0.000 -0.000  0.000 -0.000  0.000 -0.077
    2 -0.221  0.000 -0.000 -0.000 -0.000  0.000  0.000 -0.000 -0.000 -0.221
tot   -0.298  0.000 -0.000 -0.000 -0.000 -0.000  0.000 -0.000  0.000 -0.298
    1  0.083 -0.000  0.000 -0.000  0.000  0.000  0.000 -0.000  0.000  0.083
    2  0.238 -0.000  0.000 -0.000  0.000 -0.000  0.000 -0.000  0.000  0.238
tot    0.321 -0.000  0.000 -0.000  0.000  0.000  0.000 -0.000  0.000  0.321
 
band    12 # energy   -7.37128967 # occ.  1.00000000
 
ion      s     py     pz     px    dxy    dyz    dz2    dxz  x2-y2    tot
    1  0.157  0.000  0.000  0.000  0.000  0.000  0.000  0.000  0.000  0.157
    2  0.450  0.000  0.000  0.000  0.000  0.000  0.000  0.000  0.000  0.450
tot    0.607  0.000  0.000  0.000  0.000  0.000  0.000  0.000  0.000  0.607
    1 -0.108 -0.000 -0.000 -0.000 -0.000  0.000  0.000 -0.000  0.000 -0.108
    2 -0.311  0.000 -0.000 -0.000  0.000 -0.000 -0.000 -0.000  0.000 -0.311
tot   -0.420 -0.000 -0.000 -0.000 -0.000  0.000  0.000 -0.000  0.000 -0.420
    1  0.077  0.000  0.000  0.000  0.000  0.000  0.000 -0.000  0.000  0.077
    2  0.221  0.000  0.000  0.000 -0.000 -0.000 -0.000  0.000 -0.000  0.221
tot    0.298  0.000  0.000  0.000  0.000  0.000  0.000 -0.000  0.000  0.298
    1 -0.083  0.000 -0.000 -0.000  0.000 -0.000 -0.000 -0.000  0.000 -0.083
    2 -0.238 -0.000  0.000 -0.000 -0.000 -0.000  0.000 -0.000  0.000 -0.238
tot   -0.321 -0.000 -0.000 -0.000  0.000 -0.000 -0.000 -0.000  0.000 -0.321
 
band    13 # energy    4.22413013 # occ.  1.00000000
 
ion      s     py     pz     px    dxy    dyz    dz2    dxz  x2-y2    tot
    1  0.000  0.026  0.026  0.026  0.020  0.020  0.000  0.020  0.000  0.138
    2  0.000  0.150  0.149  0.149  0.001  0.001  0.000  0.001  0.000  0.451
tot    0.000  0.176  0.176  0.176  0.020  0.020  0.000  0.020  0.000  0.589
    1 -0.000  0.005  0.005 -0.005  0.004 -0.004  0.000  0.004 -0.000  0.009
    2 -0.000  0.030  0.030 -0.030  0.000 -0.000  0.000  0.000  0.000  0.030
tot   -0.000  0.035  0.036 -0.036  0.004 -0.004  0.000  0.004 -0.000  0.039
    1 -0.000 -0.024  0.024  0.024  0.017  0.017  0.000 -0.017 -0.000  0.041
    2 -0.000 -0.133  0.133  0.133  0.001  0.001  0.000 -0.001 -0.000  0.133
tot   -0.000 -0.157  0.156  0.156  0.018  0.018  0.000 -0.018 -0.000  0.174
    1 -0.000  0.011 -0.011  0.011 -0.008  0.008  0.000  0.008 -0.000  0.019
    2 -0.000  0.061 -0.061  0.061 -0.000  0.000  0.000  0.000  0.000  0.062
tot   -0.000  0.072 -0.072  0.072 -0.008  0.008  0.000  0.008 -0.000  0.081
 
band    14 # energy    4.22414260 # occ.  1.00000000
 
ion      s     py     pz     px    dxy    dyz    dz2    dxz  x2-y2    tot
    1  0.000  0.026  0.027  0.026  0.020  0.020  0.000  0.019  0.000  0.138
    2  0.000  0.148  0.152  0.149  0.001  0.001  0.000  0.001  0.000  0.451
tot    0.000  0.174  0.178  0.175  0.021  0.020  0.000  0.020  0.000  0.589
    1 -0.000 -0.005 -0.006  0.005 -0.004  0.004  0.000 -0.004  0.000 -0.010
    2 -0.000 -0.030 -0.031  0.030 -0.000  0.000  0.000 -0.000  0.000 -0.031
tot   -0.000 -0.035 -0.037  0.035 -0.004  0.004  0.000 -0.004  0.000 -0.041
    1 -0.000  0.023 -0.024 -0.024 -0.018 -0.017  0.000  0.017 -0.000 -0.042
    2 -0.000  0.132 -0.134 -0.133 -0.001 -0.001  0.000  0.001 -0.000 -0.136
tot   -0.000  0.155 -0.158 -0.156 -0.018 -0.018  0.000  0.018 -0.000 -0.177
    1 -0.000 -0.011  0.011 -0.011  0.008 -0.008 -0.000 -0.008  0.000 -0.018
    2 -0.000 -0.060  0.063 -0.060  0.000 -0.000 -0.000 -0.000  0.000 -0.058
tot   -0.000 -0.071  0.074 -0.071  0.009 -0.008 -0.000 -0.008  0.000 -0.076
 
band    15 # energy    4.22900359 # occ.  1.00000000
 
ion      s     py     pz     px    dxy    dyz    dz2    dxz  x2-y2    tot
    1  0.371  0.000  0.000  0.000  0.000  0.000  0.000  0.000  0.000  0.371
    2  0.316  0.000  0.000  0.000  0.000  0.000  0.000  0.000  0.000  0.316
tot    0.688  0.000  0.000  0.000  0.000  0.000  0.000  0.000  0.000  0.688
    1  0.256 -0.000 -0.000  0.000 -0.000  0.000  0.000 -0.000  0.000  0.256
    2  0.219 -0.000 -0.000  0.000 -0.000  0.000 -0.000 -0.000  0.000  0.219
tot    0.475 -0.000 -0.000  0.000 -0.000  0.000  0.000 -0.000  0.000  0.475
    1  0.239  0.000 -0.000 -0.000 -0.000 -0.000 -0.000 -0.000  0.000  0.239
    2  0.204  0.000 -0.000 -0.000 -0.000 -0.000 -0.000  0.000 -0.000  0.204
tot    0.443  0.000 -0.000 -0.000 -0.000 -0.000 -0.000  0.000 -0.000  0.443
    1  0.122 -0.000  0.000 -0.000  0.000 -0.000  0.000 -0.000 -0.000  0.122
    2  0.104 -0.000  0.000 -0.000  0.000 -0.000  0.000 -0.000 -0.000  0.104
tot    0.226 -0.000  0.000 -0.000  0.000 -0.000  0.000 -0.000 -0.000  0.226
 
band    16 # energy    4.22901895 # occ.  1.00000000
 
ion      s     py     pz     px    dxy    dyz    dz2    dxz  x2-y2    tot
    1  0.371  0.000  0.000  0.000  0.000  0.000  0.000  0.000  0.000  0.371
    2  0.316  0.000  0.000  0.000  0.000  0.000  0.000  0.000  0.000  0.316
tot    0.688  0.000  0.000  0.000  0.000  0.000  0.000  0.000  0.000  0.688
    1 -0.256 -0.000 -0.000 -0.000 -0.000 -0.000  0.000 -0.000  0.000 -0.256
    2 -0.219 -0.000 -0.000 -0.000 -0.000 -0.000  0.000 -0.000  0.000 -0.219
tot   -0.475 -0.000 -0.000 -0.000 -0.000 -0.000  0.000 -0.000  0.000 -0.475
    1 -0.239 -0.000 -0.000  0.000 -0.000  0.000  0.000 -0.000 -0.000 -0.239
    2 -0.204 -0.000 -0.000  0.000 -0.000 -0.000  0.000 -0.000  0.000 -0.204
tot   -0.443 -0.000 -0.000  0.000 -0.000  0.000  0.000 -0.000 -0.000 -0.443
    1 -0.122 -0.000  0.000  0.000  0.000  0.000 -0.000 -0.000  0.000 -0.122
    2 -0.104 -0.000  0.000  0.000  0.000  0.000 -0.000 -0.000  0.000 -0.104
tot   -0.226 -0.000  0.000  0.000  0.000  0.000 -0.000 -0.000  0.000 -0.226
 
band    17 # energy    4.56473407 # occ.  0.52988899
 
ion      s     py     pz     px    dxy    dyz    dz2    dxz  x2-y2    tot
    1  0.000  0.022  0.041  0.006  0.036  0.005  0.000  0.020  0.000  0.130
    2  0.000  0.144  0.266  0.037  0.001  0.000  0.000  0.001  0.000  0.449
tot    0.000  0.166  0.307  0.043  0.037  0.005  0.000  0.020  0.000  0.579
    1 -0.000 -0.016 -0.027  0.001 -0.024  0.001  0.000 -0.014  0.000 -0.079
    2 -0.000 -0.103 -0.175  0.007 -0.001  0.000  0.000 -0.000  0.000 -0.272
tot   -0.000 -0.119 -0.202  0.008 -0.025  0.001  0.000 -0.014  0.000 -0.351
    1 -0.000  0.010  0.003  0.005  0.003  0.005  0.000  0.009 -0.000  0.035
    2 -0.000  0.064  0.022  0.035  0.000  0.000  0.000  0.000 -0.000  0.120
tot   -0.000  0.073  0.025  0.040  0.003  0.005  0.000  0.009 -0.000  0.155
    1 -0.000 -0.012  0.031 -0.002  0.027 -0.001 -0.000 -0.011  0.000  0.032
    2 -0.000 -0.079  0.199 -0.011  0.001 -0.000 -0.000 -0.000  0.000  0.110
tot   -0.000 -0.091  0.230 -0.013  0.028 -0.002 -0.000 -0.011  0.000  0.142
 
band    18 # energy    4.56476017 # occ.  0.52839789
 
ion      s     py     pz     px    dxy    dyz    dz2    dxz  x2-y2    tot
    1  0.000  0.021  0.006  0.042  0.005  0.037  0.000  0.018  0.000  0.130
    2  0.000  0.133  0.040  0.274  0.000  0.001  0.000  0.001  0.000  0.449
tot    0.000  0.153  0.046  0.317  0.006  0.039  0.000  0.019  0.000  0.579
    1 -0.000 -0.016  0.004  0.013  0.004  0.012  0.000 -0.014 -0.000  0.003
    2 -0.000 -0.102  0.027  0.087  0.000  0.000  0.000 -0.000 -0.000  0.012
tot   -0.000 -0.118  0.031  0.100  0.004  0.012  0.000 -0.014 -0.000  0.015
    1 -0.000  0.004 -0.003 -0.019 -0.003 -0.017  0.000  0.004  0.000 -0.033
    2 -0.000  0.029 -0.020 -0.123 -0.000 -0.001  0.000  0.000  0.000 -0.115
tot   -0.000  0.033 -0.023 -0.142 -0.003 -0.017  0.000  0.004  0.000 -0.148
    1 -0.000 -0.012  0.004 -0.035  0.003 -0.031  0.000 -0.011  0.000 -0.083
    2 -0.000 -0.080  0.023 -0.229  0.000 -0.001  0.000 -0.000  0.000 -0.288
tot   -0.000 -0.093  0.026 -0.264  0.003 -0.032  0.000 -0.011  0.000 -0.371
 
band    19 # energy    4.56476046 # occ.  0.51583505
 
ion      s     py     pz     px    dxy    dyz    dz2    dxz  x2-y2    tot
    1  0.000  0.010  0.034  0.025  0.030  0.022  0.000  0.009  0.000  0.130
    2  0.000  0.063  0.220  0.164  0.001  0.001  0.000  0.000  0.000  0.449
tot    0.000  0.073  0.254  0.189  0.031  0.023  0.000  0.009  0.000  0.579
    1 -0.000  0.000  0.013 -0.003  0.012 -0.003  0.000  0.000 -0.000  0.019
    2 -0.000  0.000  0.085 -0.019  0.000 -0.000  0.000  0.000 -0.000  0.067
tot   -0.000  0.000  0.098 -0.022  0.012 -0.003  0.000  0.000 -0.000  0.086
    1 -0.000  0.004 -0.001  0.005 -0.001  0.004 -0.000  0.004  0.000  0.016
    2 -0.000  0.029 -0.006  0.032 -0.000  0.000 -0.000  0.000  0.000  0.055
tot   -0.000  0.033 -0.007  0.037 -0.001  0.005 -0.000  0.004  0.000  0.071
    1 -0.000  0.009 -0.031  0.025 -0.028  0.022 -0.000  0.008 -0.000  0.004
    2 -0.000  0.056 -0.203  0.159 -0.001  0.001 -0.000  0.000 -0.000  0.013
tot   -0.000  0.065 -0.234  0.184 -0.029  0.022 -0.000  0.008 -0.000  0.016
 
band    20 # energy    4.56476089 # occ.  0.42587805
 
ion      s     py     pz     px    dxy    dyz    dz2    dxz  x2-y2    tot
    1  0.000  0.040  0.010  0.019  0.009  0.017  0.000  0.035  0.000  0.130
    2  0.000  0.257  0.068  0.122  0.000  0.001  0.000  0.001  0.000  0.449
tot    0.000  0.297  0.078  0.141  0.010  0.017  0.000  0.036  0.000  0.579
    1 -0.000  0.031  0.010 -0.011  0.009 -0.010 -0.000  0.028 -0.000  0.056
    2 -0.000  0.204  0.064 -0.074  0.000 -0.000 -0.000  0.001 -0.000  0.195
tot   -0.000  0.235  0.074 -0.085  0.009 -0.010 -0.000  0.029 -0.000  0.251
    1 -0.000 -0.018  0.001  0.009  0.001  0.008 -0.000 -0.016 -0.000 -0.017
    2 -0.000 -0.120  0.005  0.056  0.000  0.000 -0.000 -0.001 -0.000 -0.058
tot   -0.000 -0.138  0.006  0.065  0.001  0.008 -0.000 -0.017 -0.000 -0.075
    1 -0.000  0.016 -0.003  0.012 -0.003  0.011 -0.000  0.014 -0.000  0.047
    2 -0.000  0.102 -0.021  0.079 -0.000  0.000 -0.000  0.000 -0.000  0.161
tot   -0.000  0.118 -0.024  0.092 -0.003  0.011 -0.000  0.014 -0.000  0.208
 
band    21 # energy    8.40861555 # occ.  0.00000000
 
ion      s     py     pz     px    dxy    dyz    dz2    dxz  x2-y2    tot
    1  0.000  0.059  0.248  0.075  0.003  0.001  0.000  0.001  0.000  0.387
    2  0.000  0.003  0.013  0.004  0.039  0.012  0.000  0.009  0.000  0.081
tot    0.000  0.062  0.261  0.079  0.043  0.013  0.000  0.010  0.000  0.468
    1  0.000 -0.040  0.238  0.023  0.003  0.000  0.000 -0.001 -0.000  0.223
    2 -0.000 -0.003  0.012  0.002  0.038  0.003  0.000 -0.006 -0.000  0.047
tot    0.000 -0.042  0.250  0.024  0.041  0.003  0.000 -0.006 -0.000  0.270
    1  0.000  0.027 -0.068 -0.055 -0.001 -0.001  0.000  0.000  0.000 -0.097
    2 -0.000  0.001 -0.003 -0.003 -0.011 -0.008  0.000  0.005  0.000 -0.020
tot    0.000  0.029 -0.071 -0.059 -0.012 -0.009  0.000  0.005  0.000 -0.118
    1 -0.000  0.034 -0.015  0.046  0.000  0.000 -0.000  0.000 -0.000  0.066
    2 -0.000  0.001  0.000  0.002 -0.004  0.008 -0.000  0.006 -0.000  0.014
tot   -0.000  0.036 -0.015  0.048 -0.004  0.008 -0.000  0.006 -0.000  0.079
 

 k-point     2 :    0.14285714 0.00000000 0.00000000     weight = 0.01166181

band     1 # energy  -10.39276623 # occ.  1.00000000
 
ion      s     py     pz     px    dxy    dyz    dz2    dxz  x2-y2    tot
    1  0.000  0.000  0.000  0.000  0.218  0.215  0.160  0.216  0.160  0.970
    2  0.003  0.001  0.001  0.001  0.000  0.000  0.000  0.000  0.000  0.006
tot    0.003  0.001  0.001  0.001  0.218  0.216  0.160  0.216  0.161  0.976
    1  0.000 -0.000  0.000  0.000  0.121  0.174  0.139 -0.046 -0.090  0.298
    2  0.001 -0.000  0.000  0.001  0.000  0.000  0.000  0.000 -0.000  0.002
tot    0.001 -0.000  0.000  0.001  0.121  0.174  0.139 -0.046 -0.090  0.300
    1  0.000  0.000  0.000  0.000  0.175  0.053  0.079  0.128 -0.128  0.306
    2  0.002  0.000  0.001  0.000  0.000  0.000  0.000  0.000 -0.000  0.004
tot    0.003  0.001  0.001  0.000  0.175  0.053  0.079  0.128 -0.128  0.310
    1  0.000  0.000 -0.000 -0.000 -0.048 -0.116 -0.013  0.167 -0.036 -0.045
    2  0.000  0.001 -0.000 -0.001 -0.000 -0.000 -0.000  0.000 -0.000  0.000
tot    0.000  0.001 -0.000 -0.001 -0.048 -0.116 -0.013  0.167 -0.036 -0.045
 
band     2 # energy  -10.39276623 # occ.  1.00000000
 
ion      s     py     pz     px    dxy    dyz    dz2    dxz  x2-y2    tot
    1  0.000  0.000  0.000  0.000  0.215  0.217  0.160  0.217  0.160  0.970
    2  0.003  0.001  0.001  0.001  0.000  0.000  0.000  0.000  0.000  0.006
tot    0.003  0.001  0.001  0.001  0.215  0.217  0.161  0.217  0.160  0.976
    1 -0.000 -0.000 -0.000 -0.000 -0.119 -0.174 -0.139  0.044  0.090 -0.298
    2 -0.001  0.000 -0.001 -0.001 -0.000 -0.000 -0.000  0.000  0.000 -0.002
tot   -0.001  0.000 -0.001 -0.001 -0.119 -0.174 -0.139  0.045  0.090 -0.300
    1 -0.000 -0.000 -0.000 -0.000 -0.172 -0.055 -0.079 -0.128  0.128 -0.306
    2 -0.002 -0.000 -0.001 -0.000 -0.000  0.000 -0.000 -0.000  0.000 -0.004
tot   -0.003 -0.001 -0.001 -0.000 -0.173 -0.055 -0.079 -0.128  0.128 -0.310
    1 -0.000 -0.000  0.000  0.000  0.047  0.118  0.013 -0.170  0.036  0.045
    2 -0.000 -0.000  0.000  0.000  0.000 -0.000  0.000  0.000  0.000 -0.000
tot   -0.000 -0.001  0.000  0.000  0.047  0.118  0.013 -0.170  0.036  0.044
 
band     3 # energy  -10.39006417 # occ.  1.00000000
 
ion      s     py     pz     px    dxy    dyz    dz2    dxz  x2-y2    tot
    1  0.000  0.000  0.000  0.000  0.213  0.213  0.167  0.213  0.167  0.973
    2  0.000  0.001  0.001  0.001  0.000  0.000  0.000  0.000  0.000  0.004
tot    0.000  0.001  0.001  0.001  0.213  0.213  0.167  0.213  0.167  0.976
    1  0.000  0.000 -0.000  0.000 -0.150 -0.000 -0.118  0.150  0.118 -0.000
    2 -0.000  0.001 -0.001 -0.000 -0.000  0.000 -0.000  0.000  0.000 -0.000
tot    0.000  0.001 -0.001 -0.000 -0.150 -0.000 -0.118  0.150  0.118 -0.000
    1 -0.000 -0.000 -0.000  0.000 -0.151  0.150 -0.119 -0.000  0.119 -0.001
    2  0.000 -0.000 -0.001  0.001 -0.000  0.000 -0.000 -0.000  0.000 -0.000
tot   -0.000 -0.000 -0.001  0.001 -0.151  0.150 -0.119 -0.000  0.119 -0.001
    1  0.000  0.000  0.000 -0.000  0.000 -0.150 -0.000  0.151  0.000  0.001
    2 -0.000  0.001  0.000 -0.001  0.000 -0.000 -0.000  0.000  0.000  0.000
tot   -0.000  0.001  0.000 -0.001  0.000 -0.150 -0.000  0.151  0.000  0.001
 
band     4 # energy  -10.38282408 # occ.  1.00000000
 
ion      s     py     pz     px    dxy    dyz    dz2    dxz  x2-y2    tot
    1  0.000  0.000  0.000  0.000  0.214  0.214  0.166  0.214  0.166  0.974
    2  0.000  0.001  0.001  0.001  0.000  0.000  0.000  0.000  0.000  0.003
tot    0.000  0.001  0.001  0.001  0.214  0.214  0.166  0.214  0.166  0.977
    1  0.000 -0.000  0.000  0.000  0.151  0.000  0.118 -0.151 -0.118  0.000
    2  0.000 -0.001  0.001  0.000  0.000 -0.000  0.000 -0.000 -0.000 -0.000
tot    0.000 -0.001  0.001  0.000  0.151  0.000  0.118 -0.151 -0.118  0.000
    1  0.000  0.000  0.000 -0.000  0.151 -0.151  0.118  0.000 -0.118  0.000
    2 -0.000  0.000  0.001 -0.001  0.000 -0.000  0.000  0.000 -0.000  0.000
tot    0.000  0.000  0.001 -0.001  0.151 -0.151  0.118  0.000 -0.118  0.000
    1 -0.000 -0.000 -0.000  0.000 -0.000  0.151  0.000 -0.151 -0.000 -0.000
    2  0.000 -0.001 -0.000  0.001 -0.000  0.000  0.000 -0.000 -0.000 -0.000
tot   -0.000 -0.001 -0.000  0.001 -0.000  0.151  0.000 -0.151 -0.000 -0.000
 
band     5 # energy   -9.60052753 # occ.  1.00000000
 
ion      s     py     pz     px    dxy    dyz    dz2    dxz  x2-y2    tot
    1  0.000  0.000  0.000  0.000  0.329  0.297  0.004  0.329  0.004  0.963
    2  0.004  0.001  0.001  0.002  0.000  0.000  0.000  0.000  0.000  0.009
tot    0.004  0.002  0.002  0.002  0.329  0.297  0.004  0.329  0.004  0.973
    1 -0.000  0.000 -0.000 -0.000 -0.002 -0.005 -0.003  0.011  0.003  0.004
    2 -0.000 -0.000  0.000 -0.000  0.000 -0.000 -0.000 -0.000  0.000 -0.000
tot   -0.000 -0.000  0.000 -0.000 -0.002 -0.005 -0.003  0.011  0.003  0.004
    1 -0.000  0.000 -0.000 -0.000 -0.255 -0.216 -0.000  0.222 -0.000 -0.249
    2 -0.003  0.001 -0.001 -0.002 -0.000 -0.000 -0.000  0.000 -0.000 -0.004
tot   -0.003  0.001 -0.001 -0.002 -0.255 -0.217 -0.000  0.222 -0.000 -0.253
    1  0.000  0.000 -0.000  0.000 -0.208  0.203 -0.003  0.242  0.003  0.237
    2  0.003  0.001 -0.001  0.002 -0.000  0.000 -0.000  0.000  0.000  0.004
tot    0.003  0.001 -0.001  0.002 -0.208  0.204 -0.003  0.242  0.003  0.242
 
band     6 # energy   -9.60052711 # occ.  1.00000000
 
ion      s     py     pz     px    dxy    dyz    dz2    dxz  x2-y2    tot
    1  0.000  0.000  0.000  0.000  0.308  0.340  0.004  0.308  0.004  0.963
    2  0.004  0.002  0.002  0.001  0.000  0.000  0.000  0.000  0.000  0.009
tot    0.004  0.002  0.002  0.001  0.308  0.340  0.004  0.308  0.004  0.973
    1  0.000  0.000 -0.000  0.000 -0.028  0.005  0.003  0.019 -0.003 -0.004
    2  0.000 -0.000  0.000  0.000  0.000  0.000  0.000 -0.000 -0.000  0.000
tot    0.000 -0.000  0.000  0.000 -0.028  0.005  0.003  0.019 -0.003 -0.004
    1  0.000 -0.000  0.000  0.000  0.225  0.246  0.000 -0.222  0.000  0.249
    2  0.003 -0.001  0.002  0.001  0.000  0.000  0.000 -0.000  0.000  0.004
tot    0.003 -0.001  0.002  0.001  0.225  0.246  0.000 -0.222  0.000  0.253
    1 -0.000 -0.000  0.000 -0.000  0.208 -0.233  0.003 -0.212 -0.003 -0.237
    2 -0.003 -0.001  0.001 -0.001  0.000 -0.000  0.000 -0.000 -0.000 -0.004
tot   -0.003 -0.002  0.001 -0.001  0.208 -0.234  0.003 -0.212 -0.003 -0.242
 
band     7 # energy   -9.52110919 # occ.  1.00000000
 
ion      s     py     pz     px    dxy    dyz    dz2    dxz  x2-y2    tot
    1  0.000  0.000  0.000  0.000  0.117  0.087  0.326  0.117  0.326  0.973
    2  0.002  0.000  0.000  0.001  0.000  0.000  0.000  0.000  0.000  0.004
tot    0.002  0.000  0.000  0.001  0.117  0.087  0.326  0.117  0.326  0.977
    1 -0.000 -0.000  0.000  0.000  0.102  0.002  0.235 -0.104 -0.225  0.010
    2 -0.000 -0.000  0.000  0.000  0.000  0.000  0.000 -0.000 -0.000 -0.000
tot   -0.000 -0.000  0.000  0.000  0.102  0.002  0.235 -0.104 -0.225  0.010
    1  0.000  0.000  0.000  0.000  0.002  0.063 -0.005  0.054 -0.005  0.109
    2  0.001  0.000 -0.000  0.001 -0.000  0.000 -0.000  0.000 -0.000  0.002
tot    0.002  0.000 -0.000  0.001  0.002  0.063 -0.005  0.054 -0.005  0.111
    1 -0.000 -0.000 -0.000 -0.000 -0.058 -0.060  0.225  0.000 -0.235 -0.128
    2 -0.001  0.000 -0.000 -0.001 -0.000 -0.000  0.000  0.000 -0.000 -0.002
tot   -0.002  0.000 -0.000 -0.001 -0.058 -0.061  0.225  0.000 -0.235 -0.130
 
band     8 # energy   -9.52110878 # occ.  1.00000000
 
ion      s     py     pz     px    dxy    dyz    dz2    dxz  x2-y2    tot
    1  0.000  0.000  0.000  0.000  0.097  0.127  0.326  0.097  0.326  0.973
    2  0.002  0.001  0.001  0.000  0.000  0.000  0.000  0.000  0.000  0.004
tot    0.002  0.001  0.001  0.000  0.097  0.127  0.326  0.097  0.326  0.977
    1  0.000  0.000 -0.000 -0.000 -0.074 -0.002 -0.235  0.076  0.225 -0.010
    2  0.000  0.001 -0.001 -0.000 -0.000 -0.000 -0.000  0.000  0.000  0.000