unknown system                          
   1.00000000000000     
     0.000000    2.816500    2.816500
     2.816500    0.000000    2.816500
     2.816500    2.816500    0.000000
   Ge
     2
Direct
  0.000000  0.000000  0.000000
  0.250000  0.250000  0.250000
 
   48   48   48
  841.87      818.81      753.10      654.25      535.59      411.44      294.72      195.29      119.03      67.460    
  37.930      24.467      19.318      16.161      13.805      12.028      10.648      9.5491      8.6667      7.9671    
  7.4283      7.0321      6.7624      6.6061      6.5549      6.6061      6.7624      7.0321      7.4283      7.9671    
  8.6667      9.5491      10.648      12.028      13.805      16.161      19.318      24.467      37.930      67.460    
  119.03      195.29      294.72      411.44      535.59      654.25      753.10      818.81      818.81      774.29    
  691.89      583.26      462.39      343.00      236.40      150.34      88.344      49.694      29.913      21.982    
  18.354      15.682      13.682      12.150      10.938      9.9628      9.1815      8.5689      8.1067      7.7781    
  7.5683      7.4663      7.4663      7.5682      7.7781      8.1067      8.5689      9.1814      9.9628      10.938    
  12.150      13.682      15.682      18.354      21.982      29.913      49.694      88.344      150.34      236.40    
  343.00      462.39      583.26      691.89      774.29      818.81      753.10      691.89      599.96      489.86    
  375.09      267.77      177.02      108.12      62.185      36.420      24.981      20.495      17.549      15.345    
  13.674      12.365      11.315      10.468      9.7950      9.2778      8.8991      8.6425      8.4946      8.4464    
  8.4946      8.6425      8.8991      9.2778      9.7950      10.468      11.315      12.365      13.674      15.345    
  17.549      20.495      24.981      36.420      62.185      108.12      177.02      267.77      375.09      489.86    
  599.96      691.89      753.10      774.59      654.25      583.26      489.86      386.35      284.75      194.95    
  123.55      73.283      42.990      28.226      22.451      19.305      16.940      15.158      13.777      12.676    
  11.787      11.076      10.523      10.111      9.8225      9.6408      9.5534      9.5534      9.6408      9.8225    
  10.111      10.523      11.076      11.787      12.676      13.777      15.158      16.940      19.305      22.451    
  28.226      42.990      73.283      123.55      194.95      284.75      386.35      489.86      583.26      654.25    
  692.65      692.65      535.59      462.39      375.09      284.75      201.27      132.01      80.934      48.350    
  31.236      24.148      20.835      18.377      16.529      15.111      13.990      13.090      12.370      11.809    
  11.390      11.093      10.900      10.791      10.756      10.791      10.900      11.093      11.390      11.809    
  12.370      13.090      13.990      15.111      16.529      18.377      20.835      24.148      31.236      48.350    
  80.934      132.01      201.27      284.75      375.09      462.39      535.59      584.42      601.58      584.42    
  411.44      343.00      267.77      194.95      132.01      83.662      51.362      33.384      25.465      22.027    
  19.561      17.706      16.296      15.194      14.318      13.624      13.090      12.699      12.428      12.254    
  12.154      12.108      12.108      12.154      12.254      12.428      12.699      13.090      13.624      14.318    
  15.194      16.296      17.706      19.561      22.027      25.465      33.384      51.362      83.662      132.01    
  194.95      267.77      343.00      411.44      463.69      492.02      492.02      463.69      294.72      236.40    
  177.02      123.55      80.934      51.362      34.164      26.197      22.784      20.407      18.615      17.262    
  16.221      15.408      14.779      14.310      13.985      13.781      13.668      13.616      13.597      13.593    
  13.597      13.616      13.668      13.781      13.985      14.310      14.779      15.408      16.221      17.262    
  18.615      20.407      22.784      26.197      34.164      51.362      80.934      123.55      177.02      236.40    
  294.72      344.08      377.19      388.85      377.19      344.08      195.29      150.34      108.12      73.283    
  48.350      33.384      26.197      23.044      20.848      19.188      17.947      17.008      16.296      15.768    
  15.403      15.186      15.092      15.086      15.129      15.182      15.217      15.217      15.182      15.129    
  15.086      15.092      15.186      15.403      15.768      16.296      17.008      17.947      19.188      20.848    
  23.044      26.197      33.384      48.350      73.283      108.12      150.34      195.29      236.98      269.17    
  286.73      286.73      269.17      236.98      119.03      88.344      62.185      42.990      31.236      25.465    
  22.784      20.848      19.385      18.302      17.504      16.924      16.529      16.301      16.227      16.283    
  16.429      16.616      16.793      16.917      16.961      16.917      16.793      16.616      16.429      16.283    
  16.227      16.301      16.529      16.924      17.504      18.302      19.385      20.848      22.784      25.465    
  31.236      42.990      62.185      88.344      119.03      150.26      177.31      195.69      202.20      195.69    
  177.31      150.26      67.460      49.694      36.420      28.226      24.148      22.027      20.407      19.188    
  18.302      17.673      17.250      17.009      16.940      17.036      17.272      17.607      17.981      18.333    
  18.637      18.824      18.824      18.637      18.333      17.981      17.607      17.272      17.036      16.940    
  17.009      17.250      17.673      18.302      19.188      20.407      22.027      24.148      28.226      36.420    
  49.694      67.459      87.656      107.20      122.70      131.27      131.27      122.70      107.20      87.656    
  37.930      29.913      24.981      22.451      20.835      19.561      18.615      17.947      17.504      17.250    
  17.173      17.273      17.549      17.983      18.528      19.124      19.793      20.515      21.093      21.315    
  21.093      20.515      19.793      19.124      18.528      17.983      17.549      17.273      17.173      17.250    
  17.504      17.947      18.615      19.561      20.835      22.451      24.981      29.913      37.930      48.552    
  60.265      70.943      78.424      81.114      78.424      70.943      60.265      48.552      24.467      21.982    
  20.495      19.305      18.377      17.706      17.262      17.008      16.924      17.009      17.273      17.725    
  18.354      19.116      19.980      21.114      22.476      23.740      24.504      24.504      23.740      22.476    
  21.114      19.980      19.116      18.354      17.725      17.273      17.009      16.924      17.008      17.262    
  17.706      18.377      19.305      20.495      21.982      24.467      28.506      33.846      39.561      44.387    
  47.151      47.151      44.387      39.561      33.846      28.506      19.318      18.354      17.549      16.940    
  16.529      16.296      16.221      16.296      16.529      16.940      17.549      18.354      19.318      20.452    
  22.065      24.159      26.319      27.953      28.562      27.953      26.319      24.159      22.065      20.452    
  19.318      18.354      17.549      16.940      16.529      16.296      16.221      16.296      16.529      16.940    
  17.549      18.354      19.318      20.452      22.065      24.159      26.319      27.953      28.562      27.953    
  26.319      24.159      22.065      20.452      16.161      15.682      15.345      15.158      15.111      15.194    
  15.408      15.768      16.301      17.036      17.983      19.116      20.452      22.414      25.138      28.214    
  30.909      32.485      32.485      30.909      28.214      25.138      22.414      20.452      19.116      17.983    
  17.036      16.301      15.768      15.408      15.194      15.111      15.158      15.345      15.682      16.161    
  16.754      17.407      18.053      18.691      19.266      19.616      19.616      19.266      18.691      18.053    
  17.407      16.754      13.805      13.682      13.674      13.777      13.990      14.318      14.779      15.403    
  16.227      17.272      18.528      19.980      22.065      25.138      28.911      32.618      35.337      36.336    
  35.337      32.618      28.911      25.138      22.065      19.980      18.528      17.272      16.227      15.403    
  14.779      14.318      13.990      13.777      13.674      13.682      13.805      14.032      14.339      14.688    
  15.029      15.314      15.503      15.569      15.503      15.314      15.029      14.688      14.339      14.032    
  12.028      12.150      12.365      12.676      13.090      13.624      14.310      15.186      16.283      17.607    
  19.124      21.114      24.159      28.214      32.618      36.381      38.551      38.551      36.381      32.618    
  28.214      24.159      21.114      19.124      17.607      16.283      15.186      14.310      13.624      13.090    
  12.676      12.365      12.150      12.028      11.997      12.046      12.154      12.294      12.435      12.548    
  12.610      12.610      12.548      12.435      12.294      12.154      12.046      11.997      10.648      10.938    
  11.315      11.787      12.370      13.090      13.985      15.092      16.429      17.981      19.793      22.476    
  26.319      30.909      35.337      38.551      39.726      38.551      35.337      30.909      26.319      22.476    
  19.793      17.981      16.429      15.092      13.985      13.090      12.370      11.787      11.315      10.938    
  10.648      10.442      10.313      10.248      10.233      10.248      10.275      10.297      10.306      10.297    
  10.275      10.248      10.233      10.248      10.313      10.442      9.5491      9.9628      10.468      11.076    
  11.809      12.699      13.781      15.086      16.616      18.333      20.515      23.740      27.953      32.485    
  36.336      38.551      38.551      36.336      32.485      27.953      23.740      20.515      18.333      16.616    
  15.086      13.781      12.699      11.809      11.076      10.468      9.9628      9.5491      9.2191      8.9664    
  8.7826      8.6564      8.5752      8.5266      8.5002      8.4889      8.4889      8.5002      8.5266      8.5752    
  8.6564      8.7825      8.9664      9.2191      8.6667      9.1815      9.7950      10.523      11.390      12.428    
  13.668      15.129      16.793      18.637      21.093      24.504      28.562      32.485      35.337      36.381    
  35.337      32.485      28.562      24.504      21.093      18.637      16.793      15.129      13.668      12.428    
  11.390      10.523      9.7950      9.1815      8.6667      8.2410      7.8971      7.6268      7.4207      7.2685    
  7.1603      7.0882      7.0469      7.0335      7.0469      7.0882      7.1603      7.2685      7.4207      7.6268    
  7.8971      8.2411      7.9671      8.5689      9.2778      10.111      11.093      12.254      13.616      15.182    
  16.917      18.824      21.315      24.504      27.953      30.909      32.618      32.618      30.909      27.953    
  24.504      21.315      18.824      16.917      15.182      13.616      12.254      11.093      10.111      9.2778    
  8.5689      7.9671      7.4612      7.0431      6.7046      6.4368      6.2296      6.0740      5.9625      5.8903    
  5.8547      5.8547      5.8903      5.9625      6.0740      6.2296      6.4368      6.7046      7.0431      7.4612    
  7.4283      8.1067      8.8991      9.8225      10.900      12.154      13.597      15.217      16.961      18.824    
  21.093      23.740      26.319      28.214      28.911      28.214      26.319      23.740      21.093      18.824    
  16.961      15.217      13.597      12.154      10.900      9.8225      8.8991      8.1067      7.4282      6.8521    
  6.3696      5.9729      5.6529      5.3999      5.2044      5.0586      4.9572      4.8972      4.8773      4.8972    
  4.9572      5.0586      5.2044      5.3999      5.6529      5.9729      6.3696      6.8521      7.0321      7.7781    
  8.6425      9.6408      10.791      12.108      13.593      15.217      16.917      18.637      20.515      22.476    
  24.159      25.138      25.138      24.159      22.476      20.515      18.637      16.917      15.217      13.593    
  12.108      10.791      9.6408      8.6425      7.7781      7.0321      6.3933      5.8534      5.4044      5.0378    
  4.7438      4.5126      4.3357      4.2070      4.1227      4.0808      4.0808      4.1227      4.2070      4.3357    
  4.5126      4.7438      5.0378      5.4044      5.8534      6.3933      6.7624      7.5683      8.4946      9.5534    
  10.756      12.108      13.597      15.182      16.793      18.333      19.793      21.114      22.065      22.414    
  22.065      21.114      19.793      18.333      16.793      15.182      13.597      12.108      10.756      9.5534    
  8.4946      7.5683      6.7624      6.0672      5.4749      4.9781      4.5685      4.2365      3.9720      3.7660    
  3.6114      3.5034      3.4393      3.4180      3.4393      3.5034      3.6114      3.7660      3.9720      4.2365    
  4.5685      4.9781      5.4749      6.0672      6.6061      7.4663      8.4464      9.5534      10.791      12.154    
  13.616      15.129      16.616      17.981      19.124      19.980      20.452      20.452      19.980      19.124    
  17.981      16.616      15.129      13.616      12.154      10.791      9.5534      8.4463      7.4662      6.6061    
  5.8587      5.2176      4.6759      4.2256      3.8573      3.5610      3.3271      3.1476      3.0168      2.9311    
  2.8886      2.8886      2.9311      3.0168      3.1476      3.3271      3.5610      3.8573      4.2256      4.6759    
  5.2176      5.8587      6.5549      7.4663      8.4946      9.6408      10.900      12.254      13.668      15.086    
  16.429      17.607      18.528      19.116      19.318      19.116      18.528      17.607      16.429      15.086    
  13.668      12.254      10.900      9.6408      8.4946      7.4662      6.5549      5.7573      5.0686      4.4830    
  3.9928      3.5889      3.2612      2.9998      2.7959      2.6429      2.5363      2.4732      2.4523      2.4732    
  2.5363      2.6429      2.7959      2.9998      3.2612      3.5889      3.9928      4.4830      5.0686      5.7573    
  6.6061      7.5682      8.6425      9.8225      11.093      12.428      13.781      15.092      16.283      17.272    
  17.983      18.354      18.354      17.983      17.272      16.283      15.092      13.781      12.428      11.093    
  9.8225      8.6425      7.5683      6.6061      5.7573      5.0198      4.3891      3.8581      3.4177      3.0577    
  2.7680      2.5394      2.3643      2.2371      2.1542      2.1132      2.1132      2.1542      2.2371      2.3643    
  2.5394      2.7680      3.0577      3.4176      3.8581      4.3891      5.0199      5.7573      6.7624      7.7781    
  8.8991      10.111      11.390      12.699      13.985      15.186      16.227      17.036      17.549      17.725    
  17.549      17.036      16.227      15.186      13.985      12.699      11.390      10.111      8.8991      7.7781    
  6.7624      5.8587      5.0686      4.3891      3.8140      3.3343      2.9398      2.6199      2.3650      2.1667    
  2.0187      1.9161      1.8558      1.8359      1.8558      1.9161      2.0187      2.1667      2.3650      2.6199    
  2.9398      3.3343      3.8140      4.3891      5.0686      5.8587      7.0321      8.1067      9.2778      10.523    
  11.809      13.090      14.310      15.403      16.301      16.940      17.273      17.273      16.940      16.301    
  15.403      14.310      13.090      11.809      10.523      9.2778      8.1067      7.0321      6.0672      5.2176    
  4.4830      3.8581      3.3343      2.9012      2.5477      2.2637      2.0402      1.8699      1.7471      1.6675    
  1.6285      1.6285      1.6675      1.7471      1.8699      2.0402      2.2637      2.5478      2.9012      3.3343    
  3.8581      4.4829      5.2176      6.0671      7.4283      8.5689      9.7950      11.076      12.370      13.624    
  14.779      15.768      16.529      17.009      17.173      17.009      16.529      15.768      14.779      13.624    
  12.370      11.076      9.7950      8.5689      7.4282      6.3933      5.4749      4.6759      3.9928      3.4177    
  2.9398      2.5477      2.2305      1.9784      1.7832      1.6385      1.5390      1.4809      1.4618      1.4809    
  1.5390      1.6385      1.7832      1.9784      2.2305      2.5477      2.9398      3.4177      3.9928      4.6759    
  5.4749      6.3933      7.9671      9.1814      10.468      11.787      13.090      14.318      15.408      16.296    
  16.924      17.250      17.250      16.924      16.296      15.408      14.318      13.090      11.787      10.468    
  9.1815      7.9671      6.8521      5.8534      4.9781      4.2256      3.5889      3.0577      2.6199      2.2637    
  1.9784      1.7548      1.5854      1.4642      1.3862      1.3481      1.3481      1.3862      1.4642      1.5854    
  1.7548      1.9784      2.2637      2.6199      3.0577      3.5889      4.2256      4.9782      5.8534      6.8521    
  8.6667      9.9628      11.315      12.676      13.990      15.194      16.221      17.008      17.504      17.673    
  17.504      17.008      16.221      15.194      13.990      12.676      11.315      9.9628      8.6667      7.4612    
  6.3696      5.4044      4.5685      3.8573      3.2612      2.7680      2.3650      2.0402      1.7832      1.5854    
  1.4396      1.3399      1.2819      1.2629      1.2819      1.3399      1.4396      1.5854      1.7832      2.0402    
  2.3650      2.7680      3.2612      3.8573      4.5685      5.4044      6.3696      7.4612      9.5491      10.938    
  12.365      13.777      15.111      16.296      17.262      17.947      18.302      18.302      17.947      17.262    
  16.296      15.111      13.777      12.365      10.938      9.5491      8.2410      7.0431      5.9729      5.0378    
  4.2365      3.5610      2.9998      2.5394      2.1667      1.8699      1.6385      1.4642      1.3399      1.2602    
  1.2213      1.2213      1.2602      1.3399      1.4642      1.6385      1.8699      2.1667      2.5394      2.9998    
  3.5610      4.2365      5.0378      5.9729      7.0431      8.2411      10.648      12.150      13.674      15.158    
  16.529      17.706      18.615      19.188      19.385      19.188      18.615      17.706      16.529      15.158    
  13.674      12.150      10.648      9.2191      7.8971      6.7046      5.6529      4.7438      3.9720      3.3271    
  2.7959      2.3643      2.0187      1.7471      1.5390      1.3862      1.2819      1.2213      1.2015      1.2213    
  1.2819      1.3862      1.5390      1.7471      2.0187      2.3643      2.7959      3.3271      3.9720      4.7438    
  5.6529      6.7046      7.8971      9.2191      12.028      13.682      15.345      16.940      18.377      19.561    
  20.407      20.848      20.848      20.407      19.561      18.377      16.940      15.345      13.682      12.028    
  10.442      8.9664      7.6268      6.4368      5.3999      4.5126      3.7660      3.1476      2.6429      2.2371    
  1.9161      1.6675      1.4809      1.3481      1.2629      1.2213      1.2213      1.2629      1.3481      1.4809    
  1.6675      1.9161      2.2371      2.6429      3.1476      3.7660      4.5126      5.3999      6.4368      7.6268    
  8.9664      10.442      13.805      15.682      17.549      19.305      20.835      22.027      22.784      23.044    
  22.784      22.027      20.835      19.305      17.549      15.682      13.805      11.997      10.313      8.7826    
  7.4207      6.2296      5.2044      4.3357      3.6114      3.0168      2.5363      2.1542      1.8558      1.6285    
  1.4618      1.3481      1.2819      1.2602      1.2819      1.3481      1.4618      1.6285      1.8558      2.1542    
  2.5363      3.0168      3.6114      4.3357      5.2044      6.2296      7.4207      8.7826      10.313      11.997    
  16.161      18.354      20.495      22.451      24.148      25.465      26.197      26.197      25.465      24.148    
  22.451      20.495      18.354      16.161      14.032      12.046      10.248      8.6564      7.2685      6.0740    
  5.0586      4.2070      3.5034      2.9311      2.4732      2.1132      1.8359      1.6285      1.4809      1.3862    
  1.3399      1.3399      1.3862      1.4809      1.6285      1.8359      2.1132      2.4732      2.9311      3.5034    
  4.2070      5.0586      6.0740      7.2685      8.6564      10.248      12.046      14.032      19.318      21.982    
  24.981      28.226      31.236      33.384      34.164      33.384      31.236      28.226      24.981      21.982    
  19.318      16.754      14.339      12.154      10.233      8.5752      7.1603      5.9625      4.9572      4.1227    
  3.4393      2.8886      2.4523      2.1132      1.8558      1.6675      1.5390      1.4642      1.4396      1.4642    
  1.5390      1.6675      1.8558      2.1132      2.4523      2.8886      3.4393      4.1227      4.9572      5.9625    
  7.1603      8.5752      10.233      12.154      14.339      16.754      24.467      29.913      36.420      42.990    
  48.350      51.362      51.362      48.350      42.990      36.420      29.913      24.467      20.452      17.407    
  14.688      12.294      10.248      8.5266      7.0882      5.8903      4.8972      4.0808      3.4180      2.8886    
  2.4732      2.1542      1.9161      1.7471      1.6385      1.5854      1.5854      1.6385      1.7471      1.9161    
  2.1542      2.4732      2.8886      3.4180      4.0808      4.8972      5.8903      7.0882      8.5266      10.248    
  12.294      14.688      17.407      20.452      37.930      49.694      62.185      73.283      80.934      83.662    
  80.934      73.283      62.185      49.694      37.930      28.506      22.065      18.053      15.029      12.435    
  10.275      8.5002      7.0469      5.8547      4.8773      4.0808      3.4393      2.9311      2.5363      2.2371    
  2.0187      1.8699      1.7832      1.7548      1.7832      1.8699      2.0187      2.2371      2.5363      2.9311    
  3.4393      4.0808      4.8773      5.8547      7.0469      8.5002      10.275      12.435      15.029      18.053    
  22.065      28.506      67.460      88.344      108.12      123.55      132.01      132.01      123.55      108.12    
  88.344      67.459      48.552      33.846      24.159      18.691      15.314      12.548      10.297      8.4889    
  7.0335      5.8547      4.8972      4.1227      3.5034      3.0168      2.6429      2.3643      2.1667      2.0402    
  1.9784      1.9784      2.0402      2.1667      2.3643      2.6429      3.0168      3.5034      4.1227      4.8972    
  5.8547      7.0335      8.4889      10.297      12.548      15.314      18.691      24.159      33.846      48.552    
  119.03      150.34      177.02      194.95      201.27      194.95      177.02      150.34      119.03      87.656    
  60.265      39.561      26.319      19.266      15.503      12.610      10.306      8.4889      7.0469      5.8903    
  4.9572      4.2070      3.6114      3.1476      2.7959      2.5394      2.3650      2.2637      2.2305      2.2637    
  2.3650      2.5394      2.7959      3.1476      3.6114      4.2070      4.9572      5.8903      7.0469      8.4889    
  10.306      12.610      15.503      19.266      26.319      39.561      60.265      87.656      195.29      236.40    
  267.77      284.75      284.75      267.77      236.40      195.29      150.26      107.20      70.943      44.387    
  27.953      19.616      15.569      12.610      10.297      8.5002      7.0882      5.9625      5.0586      4.3357    
  3.7660      3.3271      2.9998      2.7680      2.6199      2.5478      2.5477      2.6199      2.7680      2.9998    
  3.3271      3.7660      4.3357      5.0586      5.9625      7.0882      8.5002      10.297      12.610      15.569    
  19.616      27.953      44.387      70.943      107.20      150.26      294.72      343.00      375.09      386.35    
  375.09      343.00      294.72      236.98      177.31      122.70      78.424      47.151      28.562      19.616    
  15.503      12.548      10.275      8.5266      7.1603      6.0740      5.2044      4.5126      3.9720      3.5610    
  3.2612      3.0577      2.9398      2.9012      2.9398      3.0577      3.2612      3.5610      3.9720      4.5126    
  5.2044      6.0740      7.1603      8.5266      10.275      12.548      15.503      19.616      28.562      47.151    
  78.424      122.70      177.31      236.98      411.44      462.39      489.86      489.86      462.39      411.44    
  344.08      269.17      195.69      131.27      81.114      47.151      27.953      19.266      15.314      12.435    
  10.248      8.5752      7.2685      6.2296      5.3999      4.7438      4.2365      3.8573      3.5889      3.4176    
  3.3343      3.3343      3.4177      3.5889      3.8573      4.2365      4.7438      5.3999      6.2296      7.2685    
  8.5752      10.248      12.435      15.314      19.266      27.953      47.151      81.114      131.27      195.69    
  269.17      344.08      535.59      583.26      599.96      583.26      535.59      463.69      377.19      286.73    
  202.20      131.27      78.424      44.387      26.319      18.691      15.029      12.294      10.233      8.6564    
  7.4207      6.4368      5.6529      5.0378      4.5685      4.2256      3.9928      3.8581      3.8140      3.8581    
  3.9928      4.2256      4.5685      5.0378      5.6529      6.4368      7.4207      8.6564      10.233      12.294    
  15.029      18.691      26.319      44.387      78.424      131.27      202.20      286.73      377.19      463.69    
  654.25      691.89      691.89      654.25      584.42      492.02      388.85      286.73      195.69      122.70    
  70.943      39.561      24.159      18.053      14.688      12.154      10.248      8.7825      7.6268      6.7046    
  5.9729      5.4044      4.9781      4.6759      4.4830      4.3891      4.3891      4.4829      4.6759      4.9782    
  5.4044      5.9729      6.7046      7.6268      8.7826      10.248      12.154      14.688      18.053      24.159    
  39.561      70.943      122.70      195.69      286.73      388.85      492.02      584.42      753.10      774.29    
  753.10      692.65      601.58      492.02      377.19      269.17      177.31      107.20      60.265      33.846    
  22.065      17.407      14.339      12.046      10.313      8.9664      7.8971      7.0431      6.3696      5.8534    
  5.4749      5.2176      5.0686      5.0199      5.0686      5.2176      5.4749      5.8534      6.3696      7.0431    
  7.8971      8.9664      10.313      12.046      14.339      17.407      22.065      33.846      60.265      107.20    
  177.31      269.17      377.19      492.02      601.58      692.65      818.81      818.81      774.59      692.65    
  584.42      463.69      344.08      236.98      150.26      87.656      48.552      28.506      20.452      16.754    
  14.032      11.997      10.442      9.2191      8.2411      7.4612      6.8521      6.3933      6.0672      5.8587    
  5.7573      5.7573      5.8587      6.0671      6.3933      6.8521      7.4612      8.2411      9.2191      10.442    
  11.997      14.032      16.754      20.452      28.506      48.552      87.656      150.26      236.98      344.08    
  463.69      584.42      692.65      774.59      818.81      774.29      691.89      583.26      462.39      343.00    
  236.40      150.34      88.344      49.694      29.913      21.982      18.354      15.682      13.682      12.150    
  10.938      9.9628      9.1815      8.5689      8.1067      7.7781      7.5683      7.4663      7.4663      7.5682    
  7.7781      8.1067      8.5689      9.1814      9.9628      10.938      12.150      13.682      15.682      18.354    
  21.982      29.913      49.694      88.344      150.34      236.40      343.00      462.39      583.26      691.89    
  774.29      818.81      774.29      711.50      617.18      504.23      386.45      276.22      182.87      111.81    
  64.247      37.395      25.375      20.717      17.725      15.489      13.797      12.474      11.413      10.558    
  9.8791      9.3572      8.9751      8.7163      8.5672      8.5185      8.5672      8.7163      8.9751      9.3572    
  9.8791      10.558      11.413      12.474      13.797      15.489      17.725      20.717      25.375      37.395    
  64.247      111.81      182.87      276.22      386.45      504.23      617.18      711.50      774.29      796.34    
  691.89      617.18      518.89      409.90      302.77      207.86      132.06      78.304      45.551      29.332    
  22.968      19.711      17.273      15.441      14.028      12.904      11.997      11.273      10.710      10.291    
  9.9977      9.8132      9.7245      9.7246      9.8132      9.9977      10.291      10.710      11.273      11.997    
  12.904      14.028      15.441      17.273      19.711      22.968      29.332      45.551      78.304      132.06    
  207.86      302.77      409.90      518.89      617.18      691.89      732.30      732.30      583.26      504.23    