   2   2   1   0
  0.2234237E+02  0.3983133E-09  0.3983133E-09  0.3983133E-09  0.5000000E-15
  1.000000000000000E-004
  CAR 
 unknown system                          
     58.82110977    -23.50185501  301      5.21477416      1.00000000
    -23.502  0.0000E+00  0.0000E+00  0.0000E+00  0.0000E+00
    -23.227  0.0000E+00  0.0000E+00  0.0000E+00  0.0000E+00
    -22.953  0.0000E+00  0.0000E+00  0.0000E+00  0.0000E+00
    -22.679  0.0000E+00  0.0000E+00  0.0000E+00  0.0000E+00
    -22.404  0.0000E+00  0.0000E+00  0.0000E+00  0.0000E+00
    -22.130  0.0000E+00  0.0000E+00  0.0000E+00  0.0000E+00
    -21.855  0.0000E+00  0.0000E+00  0.0000E+00  0.0000E+00
    -21.581  0.0000E+00  0.0000E+00  0.0000E+00  0.0000E+00
    -21.307  0.0000E+00  0.0000E+00  0.0000E+00  0.0000E+00
    -21.032  0.0000E+00  0.0000E+00  0.0000E+00  0.0000E+00
    -20.758  0.0000E+00  0.0000E+00  0.0000E+00  0.0000E+00
    -20.483  0.0000E+00  0.0000E+00  0.0000E+00  0.0000E+00
    -20.209  0.0000E+00  0.0000E+00  0.0000E+00  0.0000E+00
    -19.935  0.4282E-06  0.4279E-06  0.1175E-06  0.1174E-06
    -19.660  0.1014E+02  0.1014E+02  0.2782E+01  0.2782E+01
    -19.386  0.2365E+02  0.2365E+02  0.9271E+01  0.9271E+01
    -19.111  0.2655E+01  0.2655E+01  0.1000E+02  0.1000E+02
    -18.837  0.0000E+00  0.0000E+00  0.1000E+02  0.1000E+02
    -18.562  0.0000E+00  0.0000E+00  0.1000E+02  0.1000E+02
    -18.288  0.0000E+00  0.0000E+00  0.1000E+02  0.1000E+02
    -18.014  0.0000E+00  0.0000E+00  0.1000E+02  0.1000E+02
    -17.739  0.0000E+00  0.0000E+00  0.1000E+02  0.1000E+02
    -17.465  0.0000E+00  0.0000E+00  0.1000E+02  0.1000E+02
    -17.190  0.0000E+00  0.0000E+00  0.1000E+02  0.1000E+02
    -16.916  0.0000E+00  0.0000E+00  0.1000E+02  0.1000E+02
    -16.642  0.0000E+00  0.0000E+00  0.1000E+02  0.1000E+02
    -16.367  0.0000E+00  0.0000E+00  0.1000E+02  0.1000E+02
    -16.093  0.0000E+00  0.0000E+00  0.1000E+02  0.1000E+02
    -15.818  0.0000E+00  0.0000E+00  0.1000E+02  0.1000E+02
    -15.544  0.0000E+00  0.0000E+00  0.1000E+02  0.1000E+02
    -15.270  0.0000E+00  0.0000E+00  0.1000E+02  0.1000E+02
    -14.995  0.0000E+00  0.0000E+00  0.1000E+02  0.1000E+02
    -14.721  0.0000E+00  0.0000E+00  0.1000E+02  0.1000E+02
    -14.446  0.0000E+00  0.0000E+00  0.1000E+02  0.1000E+02
    -14.172  0.0000E+00  0.0000E+00  0.1000E+02  0.1000E+02
    -13.898  0.0000E+00  0.0000E+00  0.1000E+02  0.1000E+02
    -13.623  0.0000E+00  0.0000E+00  0.1000E+02  0.1000E+02
    -13.349  0.0000E+00  0.0000E+00  0.1000E+02  0.1000E+02
    -13.074  0.0000E+00  0.0000E+00  0.1000E+02  0.1000E+02
    -12.800  0.0000E+00  0.0000E+00  0.1000E+02  0.1000E+02
    -12.525  0.0000E+00  0.0000E+00  0.1000E+02  0.1000E+02
    -12.251  0.0000E+00  0.0000E+00  0.1000E+02  0.1000E+02
    -11.977  0.0000E+00  0.0000E+00  0.1000E+02  0.1000E+02
    -11.702  0.0000E+00  0.0000E+00  0.1000E+02  0.1000E+02
    -11.428  0.0000E+00  0.0000E+00  0.1000E+02  0.1000E+02
    -11.153  0.0000E+00  0.0000E+00  0.1000E+02  0.1000E+02
    -10.879  0.0000E+00  0.0000E+00  0.1000E+02  0.1000E+02
    -10.605  0.0000E+00  0.0000E+00  0.1000E+02  0.1000E+02
    -10.330  0.0000E+00  0.0000E+00  0.1000E+02  0.1000E+02
    -10.056  0.0000E+00  0.0000E+00  0.1000E+02  0.1000E+02
     -9.781  0.0000E+00  0.0000E+00  0.1000E+02  0.1000E+02
     -9.507  0.0000E+00  0.0000E+00  0.1000E+02  0.1000E+02
     -9.233  0.0000E+00  0.0000E+00  0.1000E+02  0.1000E+02
     -8.958  0.0000E+00  0.0000E+00  0.1000E+02  0.1000E+02
     -8.684  0.0000E+00  0.0000E+00  0.1000E+02  0.1000E+02
     -8.409  0.0000E+00  0.0000E+00  0.1000E+02  0.1000E+02
     -8.135  0.0000E+00  0.0000E+00  0.1000E+02  0.1000E+02
     -7.860  0.8980E-05  0.8983E-05  0.1000E+02  0.1000E+02
     -7.586  0.1686E-01  0.1686E-01  0.1000E+02  0.1000E+02
     -7.312  0.1591E+00  0.1591E+00  0.1005E+02  0.1005E+02
     -7.037  0.7707E-01  0.7707E-01  0.1007E+02  0.1007E+02
     -6.763  0.2012E+00  0.2012E+00  0.1012E+02  0.1012E+02
     -6.488  0.3603E+00  0.3603E+00  0.1022E+02  0.1022E+02
     -6.214  0.1808E+00  0.1808E+00  0.1027E+02  0.1027E+02
     -5.940  0.5326E-01  0.5327E-01  0.1029E+02  0.1029E+02
     -5.665  0.4706E+00  0.4706E+00  0.1042E+02  0.1042E+02
     -5.391  0.8369E+00  0.8369E+00  0.1065E+02  0.1065E+02
     -5.116  0.2266E-01  0.2265E-01  0.1065E+02  0.1065E+02
     -4.842  0.2663E+00  0.2663E+00  0.1073E+02  0.1073E+02
     -4.568  0.7460E+00  0.7460E+00  0.1093E+02  0.1093E+02
     -4.293  0.0000E+00  0.0000E+00  0.1093E+02  0.1093E+02
     -4.019  0.1138E-09  0.1138E-09  0.1093E+02  0.1093E+02
     -3.744  0.2449E+00  0.2449E+00  0.1100E+02  0.1100E+02
     -3.470  0.2612E+00  0.2612E+00  0.1107E+02  0.1107E+02
     -3.196  0.0000E+00  0.0000E+00  0.1107E+02  0.1107E+02
     -2.921  0.1070E-04  0.1070E-04  0.1107E+02  0.1107E+02
     -2.647  0.6398E+00  0.6398E+00  0.1125E+02  0.1125E+02
     -2.372  0.4679E+00  0.4679E+00  0.1137E+02  0.1137E+02
     -2.098  0.3769E+00  0.3769E+00  0.1148E+02  0.1148E+02
     -1.823  0.3177E-01  0.3178E-01  0.1149E+02  0.1149E+02
     -1.549  0.7777E+00  0.7777E+00  0.1170E+02  0.1170E+02
     -1.275  0.3764E-03  0.3763E-03  0.1170E+02  0.1170E+02
     -1.000  0.1606E+00  0.1606E+00  0.1174E+02  0.1174E+02
     -0.726  0.7560E-01  0.7559E-01  0.1176E+02  0.1176E+02
     -0.451  0.5409E-05  0.5411E-05  0.1176E+02  0.1176E+02
     -0.177  0.4048E+00  0.4048E+00  0.1187E+02  0.1187E+02
      0.097  0.0000E+00  0.0000E+00  0.1188E+02  0.1188E+02
      0.372  0.2697E-01  0.2698E-01  0.1188E+02  0.1188E+02
      0.646  0.3492E+00  0.3492E+00  0.1198E+02  0.1198E+02
      0.921  0.2193E+00  0.2193E+00  0.1204E+02  0.1204E+02
      1.195  0.2144E+00  0.2144E+00  0.1210E+02  0.1210E+02
      1.469  0.1212E+01  0.1212E+01  0.1243E+02  0.1243E+02
      1.744  0.1204E+00  0.1204E+00  0.1246E+02  0.1246E+02
      2.018  0.9233E+00  0.9233E+00  0.1272E+02  0.1272E+02
      2.293  0.5844E+00  0.5844E+00  0.1288E+02  0.1288E+02
      2.567  0.6891E+00  0.6891E+00  0.1307E+02  0.1307E+02
      2.841  0.9651E+00  0.9651E+00  0.1333E+02  0.1333E+02
      3.116  0.2392E+00  0.2393E+00  0.1340E+02  0.1340E+02
      3.390  0.6648E+00  0.6648E+00  0.1358E+02  0.1358E+02
      3.665  0.3713E+00  0.3713E+00  0.1368E+02  0.1368E+02
      3.939  0.4921E+00  0.4921E+00  0.1382E+02  0.1382E+02
      4.214  0.1489E+00  0.1488E+00  0.1386E+02  0.1386E+02
      4.488  0.1957E+00  0.1957E+00  0.1391E+02  0.1391E+02
      4.762  0.2767E+00  0.2767E+00  0.1399E+02  0.1399E+02
      5.037  0.2310E-03  0.2311E-03  0.1399E+02  0.1399E+02
      5.311  0.7098E-01  0.7098E-01  0.1401E+02  0.1401E+02
      5.586  0.1367E+00  0.1367E+00  0.1404E+02  0.1404E+02
      5.860  0.2074E+00  0.2074E+00  0.1410E+02  0.1410E+02
      6.134  0.1873E+00  0.1873E+00  0.1415E+02  0.1415E+02
      6.409  0.4098E+00  0.4097E+00  0.1426E+02  0.1426E+02
      6.683  0.2340E+00  0.2340E+00  0.1433E+02  0.1433E+02
      6.958  0.1195E+01  0.1195E+01  0.1466E+02  0.1466E+02
      7.232  0.3933E+00  0.3933E+00  0.1476E+02  0.1476E+02
      7.506  0.1257E-03  0.1257E-03  0.1476E+02  0.1476E+02
      7.781  0.1574E+00  0.1574E+00  0.1481E+02  0.1481E+02
      8.055  0.1209E+01  0.1209E+01  0.1514E+02  0.1514E+02
      8.330  0.7972E+00  0.7972E+00  0.1536E+02  0.1536E+02
      8.604  0.6881E+00  0.6881E+00  0.1555E+02  0.1555E+02
      8.879  0.7242E+00  0.7242E+00  0.1575E+02  0.1575E+02
      9.153  0.9271E+00  0.9271E+00  0.1600E+02  0.1600E+02
      9.427  0.5194E+00  0.5194E+00  0.1614E+02  0.1614E+02
      9.702  0.1000E+01  0.1000E+01  0.1642E+02  0.1642E+02
      9.976  0.1172E-02  0.1172E-02  0.1642E+02  0.1642E+02
     10.251  0.8219E+00  0.8219E+00  0.1664E+02  0.1664E+02
     10.525  0.5888E+00  0.5888E+00  0.1680E+02  0.1680E+02
     10.799  0.6017E-02  0.6017E-02  0.1681E+02  0.1681E+02
     11.074  0.2024E+00  0.2024E+00  0.1686E+02  0.1686E+02
     11.348  0.7999E+00  0.7999E+00  0.1708E+02  0.1708E+02
     11.623  0.6162E+00  0.6162E+00  0.1725E+02  0.1725E+02
     11.897  0.6693E+00  0.6693E+00  0.1743E+02  0.1743E+02
     12.171  0.4862E+00  0.4862E+00  0.1757E+02  0.1757E+02
     12.446  0.1265E+01  0.1265E+01  0.1791E+02  0.1791E+02
     12.720  0.3317E+00  0.3317E+00  0.1800E+02  0.1800E+02
     12.995  0.4886E+00  0.4886E+00  0.1814E+02  0.1814E+02
     13.269  0.4415E+00  0.4415E+00  0.1826E+02  0.1826E+02
     13.543  0.7618E+00  0.7618E+00  0.1847E+02  0.1847E+02
     13.818  0.6689E+00  0.6689E+00  0.1865E+02  0.1865E+02
     14.092  0.1376E+00  0.1376E+00  0.1869E+02  0.1869E+02
     14.367  0.7173E+00  0.7173E+00  0.1889E+02  0.1889E+02
     14.641  0.1243E+01  0.1243E+01  0.1923E+02  0.1923E+02
     14.916  0.3592E+00  0.3592E+00  0.1933E+02  0.1933E+02
     15.190  0.7302E+00  0.7302E+00  0.1953E+02  0.1953E+02
     15.464  0.3227E+00  0.3227E+00  0.1962E+02  0.1962E+02
     15.739  0.5763E+00  0.5763E+00  0.1977E+02  0.1977E+02
     16.013  0.1118E+00  0.1118E+00  0.1980E+02  0.1980E+02
     16.288  0.9940E+00  0.9940E+00  0.2008E+02  0.2008E+02
     16.562  0.8924E+00  0.8924E+00  0.2032E+02  0.2032E+02
     16.836  0.1400E+00  0.1401E+00  0.2036E+02  0.2036E+02
     17.111  0.1483E+01  0.1483E+01  0.2077E+02  0.2077E+02
     17.385  0.1453E+01  0.1453E+01  0.2117E+02  0.2117E+02
     17.660  0.4209E+00  0.4209E+00  0.2128E+02  0.2128E+02
     17.934  0.7604E+00  0.7604E+00  0.2149E+02  0.2149E+02
     18.208  0.1044E+01  0.1044E+01  0.2178E+02  0.2178E+02
     18.483  0.1136E+01  0.1136E+01  0.2209E+02  0.2209E+02
     18.757  0.2958E-01  0.2958E-01  0.2210E+02  0.2210E+02
     19.032  0.7573E+00  0.7574E+00  0.2230E+02  0.2230E+02
     19.306  0.9638E+00  0.9638E+00  0.2257E+02  0.2257E+02
     19.580  0.5919E-06  0.5922E-06  0.2257E+02  0.2257E+02
     19.855  0.8720E+00  0.8720E+00  0.2281E+02  0.2281E+02
     20.129  0.1403E+00  0.1402E+00  0.2285E+02  0.2285E+02
     20.404  0.1009E+00  0.1009E+00  0.2287E+02  0.2287E+02
     20.678  0.2835E-03  0.2834E-03  0.2288E+02  0.2288E+02
     20.953  0.2122E+00  0.2122E+00  0.2293E+02  0.2293E+02
     21.227  0.1073E+01  0.1073E+01  0.2323E+02  0.2323E+02
     21.501  0.1162E+01  0.1162E+01  0.2355E+02  0.2355E+02
     21.776  0.2297E+01  0.2297E+01  0.2418E+02  0.2418E+02
     22.050  0.8339E+00  0.8340E+00  0.2441E+02  0.2441E+02
     22.325  0.7877E+00  0.7877E+00  0.2462E+02  0.2462E+02
     22.599  0.9669E+00  0.9669E+00  0.2489E+02  0.2489E+02
     22.873  0.7192E+00  0.7193E+00  0.2508E+02  0.2508E+02
     23.148  0.5479E+00  0.5479E+00  0.2523E+02  0.2523E+02
     23.422  0.1348E+01  0.1348E+01  0.2560E+02  0.2560E+02
     23.697  0.3810E+00  0.3811E+00  0.2571E+02  0.2571E+02
     23.971  0.9815E+00  0.9815E+00  0.2598E+02  0.2598E+02
     24.245  0.1323E+01  0.1323E+01  0.2634E+02  0.2634E+02
     24.520  0.2896E+00  0.2896E+00  0.2642E+02  0.2642E+02
     24.794  0.5376E+00  0.5377E+00  0.2657E+02  0.2657E+02
     25.069  0.3733E+00  0.3733E+00  0.2667E+02  0.2667E+02
     25.343  0.6023E-01  0.6024E-01  0.2669E+02  0.2669E+02
     25.618  0.1061E+01  0.1061E+01  0.2698E+02  0.2698E+02
     25.892  0.6489E+00  0.6489E+00  0.2716E+02  0.2716E+02
     26.166  0.7619E+00  0.7619E+00  0.2737E+02  0.2737E+02
     26.441  0.8466E+00  0.8466E+00  0.2760E+02  0.2760E+02
     26.715  0.1178E+01  0.1178E+01  0.2792E+02  0.2792E+02
     26.990  0.6509E+00  0.6509E+00  0.2810E+02  0.2810E+02
     27.264  0.1103E+01  0.1103E+01  0.2840E+02  0.2840E+02
     27.538  0.1025E+01  0.1025E+01  0.2868E+02  0.2868E+02
     27.813  0.1605E+01  0.1605E+01  0.2912E+02  0.2912E+02
     28.087  0.1875E+01  0.1876E+01  0.2964E+02  0.2964E+02
     28.362  0.6767E+00  0.6767E+00  0.2982E+02  0.2982E+02
     28.636  0.1407E+01  0.1407E+01  0.3021E+02  0.3021E+02
     28.910  0.4457E+00  0.4457E+00  0.3033E+02  0.3033E+02
     29.185  0.7939E+00  0.7939E+00  0.3055E+02  0.3055E+02
     29.459  0.1141E+01  0.1141E+01  0.3086E+02  0.3086E+02
     29.734  0.5799E+00  0.5799E+00  0.3102E+02  0.3102E+02
     30.008  0.2396E+00  0.2396E+00  0.3109E+02  0.3109E+02
     30.282  0.5702E+00  0.5702E+00  0.3125E+02  0.3125E+02
     30.557  0.1921E+00  0.1921E+00  0.3130E+02  0.3130E+02
     30.831  0.1351E+01  0.1351E+01  0.3167E+02  0.3167E+02
     31.106  0.4075E+00  0.4074E+00  0.3178E+02  0.3178E+02
     31.380  0.1439E+01  0.1439E+01  0.3218E+02  0.3218E+02
     31.655  0.8825E+00  0.8825E+00  0.3242E+02  0.3242E+02
     31.929  0.4015E+00  0.4014E+00  0.3253E+02  0.3253E+02
     32.203  0.9527E+00  0.9527E+00  0.3279E+02  0.3279E+02
     32.478  0.8082E+00  0.8082E+00  0.3301E+02  0.3301E+02
     32.752  0.1846E+01  0.1846E+01  0.3352E+02  0.3352E+02
     33.027  0.2142E+01  0.2142E+01  0.3411E+02  0.3411E+02
     33.301  0.3259E+00  0.3258E+00  0.3419E+02  0.3419E+02
     33.575  0.1768E+01  0.1768E+01  0.3468E+02  0.3468E+02
     33.850  0.5503E+00  0.5503E+00  0.3483E+02  0.3483E+02
     34.124  0.3351E+00  0.3351E+00  0.3492E+02  0.3492E+02
     34.399  0.1396E+01  0.1396E+01  0.3531E+02  0.3531E+02
     34.673  0.1026E+01  0.1027E+01  0.3559E+02  0.3559E+02
     34.947  0.6622E+00  0.6623E+00  0.3577E+02  0.3577E+02
     35.222  0.1390E+01  0.1390E+01  0.3615E+02  0.3615E+02
     35.496  0.9867E+00  0.9869E+00  0.3642E+02  0.3642E+02
     35.771  0.6594E+00  0.6586E+00  0.3660E+02  0.3660E+02
     36.045  0.1176E+01  0.1177E+01  0.3693E+02  0.3693E+02
     36.319  0.6955E+00  0.6956E+00  0.3712E+02  0.3712E+02
     36.594  0.1189E+01  0.1188E+01  0.3744E+02  0.3744E+02
     36.868  0.9052E-01  0.9076E-01  0.3747E+02  0.3747E+02
     37.143  0.5079E+00  0.5082E+00  0.3761E+02  0.3761E+02
     37.417  0.4999E+00  0.4984E+00  0.3774E+02  0.3774E+02
     37.692  0.1035E+01  0.1027E+01  0.3803E+02  0.3803E+02
     37.966  0.3124E+00  0.3213E+00  0.3811E+02  0.3811E+02
     38.240  0.1635E+01  0.1638E+01  0.3856E+02  0.3856E+02
     38.515  0.9062E+00  0.9045E+00  0.3881E+02  0.3881E+02
     38.789  0.1052E+01  0.1056E+01  0.3910E+02  0.3910E+02
     39.064  0.2239E+01  0.2235E+01  0.3971E+02  0.3971E+02
     39.338  0.1941E+01  0.1940E+01  0.4025E+02  0.4025E+02
     39.612  0.1234E+01  0.1237E+01  0.4059E+02  0.4059E+02
     39.887  0.9306E+00  0.9208E+00  0.4084E+02  0.4084E+02
     40.161  0.1407E+01  0.1415E+01  0.4123E+02  0.4123E+02
     40.436  0.9253E+00  0.9234E+00  0.4148E+02  0.4148E+02
     40.710  0.1264E+01  0.1265E+01  0.4183E+02  0.4183E+02
     40.984  0.5336E+00  0.5348E+00  0.4197E+02  0.4197E+02
     41.259  0.3223E+00  0.3229E+00  0.4206E+02  0.4206E+02
     41.533  0.8011E+00  0.7776E+00  0.4228E+02  0.4228E+02
     41.808  0.1837E+01  0.1825E+01  0.4279E+02  0.4278E+02
     42.082  0.1892E+01  0.1925E+01  0.4331E+02  0.4331E+02
     42.357  0.1023E+01  0.9830E+00  0.4359E+02  0.4358E+02
     42.631  0.3984E+00  0.3922E+00  0.4370E+02  0.4368E+02
     42.905  0.1569E+01  0.1611E+01  0.4413E+02  0.4412E+02
     43.180  0.5744E+00  0.5746E+00  0.4428E+02  0.4428E+02
     43.454  0.5289E+00  0.5341E+00  0.4443E+02  0.4443E+02
     43.729  0.2199E+00  0.1292E+00  0.4449E+02  0.4446E+02
     44.003  0.7320E-01  0.1704E+00  0.4451E+02  0.4451E+02
     44.277  0.1451E+01  0.1433E+01  0.4491E+02  0.4490E+02
     44.552  0.6163E+00  0.5492E+00  0.4508E+02  0.4506E+02
     44.826  0.5896E+00  0.8413E+00  0.4524E+02  0.4529E+02
     45.101  0.2803E+01  0.2545E+01  0.4601E+02  0.4598E+02
     45.375  0.1522E+01  0.1630E+01  0.4642E+02  0.4643E+02
     45.649  0.6282E+00  0.6194E+00  0.4660E+02  0.4660E+02
     45.924  0.1122E+01  0.1018E+01  0.4691E+02  0.4688E+02
     46.198  0.1328E+01  0.1402E+01  0.4727E+02  0.4727E+02
     46.473  0.8412E+00  0.1247E+01  0.4750E+02  0.4761E+02
     46.747  0.1115E+01  0.7707E+00  0.4781E+02  0.4782E+02
     47.021  0.1046E+01  0.1218E+01  0.4809E+02  0.4815E+02
     47.296  0.1831E+01  0.1213E+01  0.4860E+02  0.4849E+02
     47.570  0.9093E+00  0.1419E+01  0.4885E+02  0.4888E+02
     47.845  0.1149E+01  0.1607E+01  0.4916E+02  0.4932E+02
     48.119  0.1013E+01  0.4640E+00  0.4944E+02  0.4944E+02
     48.394  0.1043E+01  0.8147E+00  0.4973E+02  0.4967E+02
     48.668  0.8962E+00  0.1601E+01  0.4997E+02  0.5011E+02
     48.942  0.1844E+01  0.1566E+01  0.5048E+02  0.5054E+02
     49.217  0.9279E+00  0.1160E+01  0.5073E+02  0.5086E+02
     49.491  0.4534E+00  0.3916E+00  0.5086E+02  0.5096E+02
     49.766  0.1031E+01  0.6461E+00  0.5114E+02  0.5114E+02
     50.040  0.1749E+00  0.5686E+00  0.5119E+02  0.5130E+02
     50.314  0.6816E+00  0.4045E+00  0.5137E+02  0.5141E+02
     50.589  0.5255E+00  0.2299E+00  0.5152E+02  0.5147E+02
     50.863  0.5323E+00  0.7888E+00  0.5166E+02  0.5169E+02
     51.138  0.8845E+00  0.4267E+00  0.5191E+02  0.5180E+02
     51.412  0.4390E+00  0.8210E+00  0.5203E+02  0.5203E+02
     51.686  0.5995E+00  0.1171E+01  0.5219E+02  0.5235E+02
     51.961  0.9198E+00  0.4936E+00  0.5244E+02  0.5249E+02
     52.235  0.6349E+00  0.6167E+00  0.5262E+02  0.5266E+02
     52.510  0.1129E+01  0.4130E+00  0.5293E+02  0.5277E+02
     52.784  0.7558E-01  0.1880E+00  0.5295E+02  0.5282E+02
     53.059  0.7890E+00  0.6761E+00  0.5317E+02  0.5301E+02
     53.333  0.1184E+01  0.1267E+01  0.5349E+02  0.5335E+02
     53.607  0.5624E-02  0.1057E+01  0.5349E+02  0.5364E+02
     53.882  0.5964E+00  0.1731E+00  0.5366E+02  0.5369E+02
     54.156  0.7283E+00  0.1048E+00  0.5386E+02  0.5372E+02
     54.431  0.4872E+00  0.6492E+00  0.5399E+02  0.5390E+02
     54.705  0.3854E-01  0.3056E+00  0.5400E+02  0.5398E+02
     54.979  0.0000E+00  0.1609E-03  0.5400E+02  0.5398E+02
     55.254  0.0000E+00  0.6732E-01  0.5400E+02  0.5400E+02
     55.528  0.0000E+00  0.0000E+00  0.5400E+02  0.5400E+02
     55.803  0.0000E+00  0.0000E+00  0.5400E+02  0.5400E+02
     56.077  0.0000E+00  0.0000E+00  0.5400E+02  0.5400E+02
     56.351  0.0000E+00  0.0000E+00  0.5400E+02  0.5400E+02
     56.626  0.0000E+00  0.0000E+00  0.5400E+02  0.5400E+02
     56.900  0.0000E+00  0.0000E+00  0.5400E+02  0.5400E+02
     57.175  0.0000E+00  0.0000E+00  0.5400E+02  0.5400E+02
     57.449  0.0000E+00  0.0000E+00  0.5400E+02  0.5400E+02
     57.723  0.0000E+00  0.0000E+00  0.5400E+02  0.5400E+02
     57.998  0.0000E+00  0.0000E+00  0.5400E+02  0.5400E+02
     58.272  0.0000E+00  0.0000E+00  0.5400E+02  0.5400E+02
     58.547  0.0000E+00  0.0000E+00  0.5400E+02  0.5400E+02
     58.821  0.0000E+00  0.0000E+00  0.5400E+02  0.5400E+02
     58.82110977    -23.50185501  301      5.21477416      1.00000000
    -23.502  0.0000E+00  0.0000E+00  0.0000E+00  0.0000E+00  0.0000E+00  0.0000E+00  0.0000E+00  0.0000E+00  0.0000E+00  0.0000E+00  0.0000E+00  0.0000E+00  0.0000E+00  0.0000E+00  0.0000E+00  0.0000E+00  0.0000E+00  0.0000E+00
    -23.227  0.0000E+00  0.0000E+00  0.0000E+00  0.0000E+00  0.0000E+00  0.0000E+00  0.0000E+00  0.0000E+00  0.0000E+00  0.0000E+00  0.0000E+00  0.0000E+00  0.0000E+00  0.0000E+00  0.0000E+00  0.0000E+00  0.0000E+00  0.0000E+00
    -22.953  0.0000E+00  0.0000E+00  0.0000E+00  0.0000E+00  0.0000E+00  0.0000E+00  0.0000E+00  0.0000E+00  0.0000E+00  0.0000E+00  0.0000E+00  0.0000E+00  0.0000E+00  0.0000E+00  0.0000E+00  0.0000E+00  0.0000E+00  0.0000E+00
    -22.679  0.0000E+00  0.0000E+00  0.0000E+00  0.0000E+00  0.0000E+00  0.0000E+00  0.0000E+00  0.0000E+00  0.0000E+00  0.0000E+00  0.0000E+00  0.0000E+00  0.0000E+00  0.0000E+00  0.0000E+00  0.0000E+00  0.0000E+00  0.0000E+00
    -22.404  0.0000E+00  0.0000E+00  0.0000E+00  0.0000E+00  0.0000E+00  0.0000E+00  0.0000E+00  0.0000E+00  0.0000E+00  0.0000E+00  0.0000E+00  0.0000E+00  0.0000E+00  0.0000E+00  0.0000E+00  0.0000E+00  0.0000E+00  0.0000E+00
    -22.130  0.0000E+00  0.0000E+00  0.0000E+00  0.0000E+00  0.0000E+00  0.0000E+00  0.0000E+00  0.0000E+00  0.0000E+00  0.0000E+00  0.0000E+00  0.0000E+00  0.0000E+00  0.0000E+00  0.0000E+00  0.0000E+00  0.0000E+00  0.0000E+00
    -21.855  0.0000E+00  0.0000E+00  0.0000E+00  0.0000E+00  0.0000E+00  0.0000E+00  0.0000E+00  0.0000E+00  0.0000E+00  0.0000E+00  0.0000E+00  0.0000E+00  0.0000E+00  0.0000E+00  0.0000E+00  0.0000E+00  0.0000E+00  0.0000E+00
    -21.581  0.0000E+00  0.0000E+00  0.0000E+00  0.0000E+00  0.0000E+00  0.0000E+00  0.0000E+00  0.0000E+00  0.0000E+00  0.0000E+00  0.0000E+00  0.0000E+00  0.0000E+00  0.0000E+00  0.0000E+00  0.0000E+00  0.0000E+00  0.0000E+00
    -21.307  0.0000E+00  0.0000E+00  0.0000E+00  0.0000E+00  0.0000E+00  0.0000E+00  0.0000E+00  0.0000E+00  0.0000E+00  0.0000E+00  0.0000E+00  0.0000E+00  0.0000E+00  0.0000E+00  0.0000E+00  0.0000E+00  0.0000E+00  0.0000E+00
    -21.032  0.0000E+00  0.0000E+00  0.0000E+00  0.0000E+00  0.0000E+00  0.0000E+00  0.0000E+00  0.0000E+00  0.0000E+00  0.0000E+00  0.0000E+00  0.0000E+00  0.0000E+00  0.0000E+00  0.0000E+00  0.0000E+00  0.0000E+00  0.0000E+00
    -20.758  0.0000E+00  0.0000E+00  0.0000E+00  0.0000E+00  0.0000E+00  0.0000E+00  0.0000E+00  0.0000E+00  0.0000E+00  0.0000E+00  0.0000E+00  0.0000E+00  0.0000E+00  0.0000E+00  0.0000E+00  0.0000E+00  0.0000E+00  0.0000E+00
    -20.483  0.0000E+00  0.0000E+00  0.0000E+00  0.0000E+00  0.0000E+00  0.0000E+00  0.0000E+00  0.0000E+00  0.0000E+00  0.0000E+00  0.0000E+00  0.0000E+00  0.0000E+00  0.0000E+00  0.0000E+00  0.0000E+00  0.0000E+00  0.0000E+00
    -20.209  0.0000E+00  0.0000E+00  0.0000E+00  0.0000E+00  0.0000E+00  0.0000E+00  0.0000E+00  0.0000E+00  0.0000E+00  0.0000E+00  0.0000E+00  0.0000E+00  0.0000E+00  0.0000E+00  0.0000E+00  0.0000E+00  0.0000E+00  0.0000E+00
    -19.935  0.8321E-12  0.8261E-12  0.4235E-10  0.4233E-10  0.2823E-10  0.2822E-10  0.3689E-10  0.3687E-10  0.5727E-07  0.5723E-07  0.6880E-07  0.6875E-07  0.8988E-08  0.8982E-08  0.7512E-07  0.7507E-07  0.2281E-08  0.2280E-08
    -19.660  0.9040E-03  0.9034E-03  0.1101E-02  0.1101E-02  0.5953E-03  0.5954E-03  0.9941E-03  0.9943E-03  0.1234E+01  0.1234E+01  0.1512E+01  0.1512E+01  0.4337E+00  0.4337E+00  0.1582E+01  0.1582E+01  0.2695E+00  0.2695E+00
    -19.386  0.3487E-02  0.3486E-02  0.7309E-03  0.7309E-03  0.9923E-03  0.9923E-03  0.7963E-03  0.7962E-03  0.2123E+01  0.2123E+01  0.1679E+01  0.1679E+01  0.3099E+01  0.3099E+01  0.1564E+01  0.1564E+01  0.3302E+01  0.3302E+01
    -19.111  0.1990E-04  0.1990E-04  0.1715E-03  0.1715E-03  0.7803E-04  0.7803E-04  0.1496E-03  0.1496E-03  0.2648E+00  0.2648E+00  0.4329E+00  0.4330E+00  0.9237E-01  0.9238E-01  0.4791E+00  0.4792E+00  0.5478E-01  0.5479E-01
    -18.837  0.0000E+00  0.0000E+00  0.0000E+00  0.0000E+00  0.0000E+00  0.0000E+00  0.0000E+00  0.0000E+00  0.0000E+00  0.0000E+00  0.0000E+00  0.0000E+00  0.0000E+00  0.0000E+00  0.0000E+00  0.0000E+00  0.0000E+00  0.0000E+00
    -18.562  0.0000E+00  0.0000E+00  0.0000E+00  0.0000E+00  0.0000E+00  0.0000E+00  0.0000E+00  0.0000E+00  0.0000E+00  0.0000E+00  0.0000E+00  0.0000E+00  0.0000E+00  0.0000E+00  0.0000E+00  0.0000E+00  0.0000E+00  0.0000E+00
    -18.288  0.0000E+00  0.0000E+00  0.0000E+00  0.0000E+00  0.0000E+00  0.0000E+00  0.0000E+00  0.0000E+00  0.0000E+00  0.0000E+00  0.0000E+00  0.0000E+00  0.0000E+00  0.0000E+00  0.0000E+00  0.0000E+00  0.0000E+00  0.0000E+00
    -18.014  0.0000E+00  0.0000E+00  0.0000E+00  0.0000E+00  0.0000E+00  0.0000E+00  0.0000E+00  0.0000E+00  0.0000E+00  0.0000E+00  0.0000E+00  0.0000E+00  0.0000E+00  0.0000E+00  0.0000E+00  0.0000E+00  0.0000E+00  0.0000E+00
    -17.739  0.0000E+00  0.0000E+00  0.0000E+00  0.0000E+00  0.0000E+00  0.0000E+00  0.0000E+00  0.0000E+00  0.0000E+00  0.0000E+00  0.0000E+00  0.0000E+00  0.0000E+00  0.0000E+00  0.0000E+00  0.0000E+00  0.0000E+00  0.0000E+00
    -17.465  0.0000E+00  0.0000E+00  0.0000E+00  0.0000E+00  0.0000E+00  0.0000E+00  0.0000E+00  0.0000E+00  0.0000E+00  0.0000E+00  0.0000E+00  0.0000E+00  0.0000E+00  0.0000E+00  0.0000E+00  0.0000E+00  0.0000E+00  0.0000E+00
    -17.190  0.0000E+00  0.0000E+00  0.0000E+00  0.0000E+00  0.0000E+00  0.0000E+00  0.0000E+00  0.0000E+00  0.0000E+00  0.0000E+00  0.0000E+00  0.0000E+00  0.0000E+00  0.0000E+00  0.0000E+00  0.0000E+00  0.0000E+00  0.0000E+00
    -16.916  0.0000E+00  0.0000E+00  0.0000E+00  0.0000E+00  0.0000E+00  0.0000E+00  0.0000E+00  0.0000E+00  0.0000E+00  0.0000E+00  0.0000E+00  0.0000E+00  0.0000E+00  0.0000E+00  0.0000E+00  0.0000E+00  0.0000E+00  0.0000E+00
    -16.642  0.0000E+00  0.0000E+00  0.0000E+00  0.0000E+00  0.0000E+00  0.0000E+00  0.0000E+00  0.0000E+00  0.0000E+00  0.0000E+00  0.0000E+00  0.0000E+00  0.0000E+00  0.0000E+00  0.0000E+00  0.0000E+00  0.0000E+00  0.0000E+00
    -16.367  0.0000E+00  0.0000E+00  0.0000E+00  0.0000E+00  0.0000E+00  0.0000E+00  0.0000E+00  0.0000E+00  0.0000E+00  0.0000E+00  0.0000E+00  0.0000E+00  0.0000E+00  0.0000E+00  0.0000E+00  0.0000E+00  0.0000E+00  0.0000E+00
    -16.093  0.0000E+00  0.0000E+00  0.0000E+00  0.0000E+00  0.0000E+00  0.0000E+00  0.0000E+00  0.0000E+00  0.0000E+00  0.0000E+00  0.0000E+00  0.0000E+00  0.0000E+00  0.0000E+00  0.0000E+00  0.0000E+00  0.0000E+00  0.0000E+00
    -15.818  0.0000E+00  0.0000E+00  0.0000E+00  0.0000E+00  0.0000E+00  0.0000E+00  0.0000E+00  0.0000E+00  0.0000E+00  0.0000E+00  0.0000E+00  0.0000E+00  0.0000E+00  0.0000E+00  0.0000E+00  0.0000E+00  0.0000E+00  0.0000E+00
    -15.544  0.0000E+00  0.0000E+00  0.0000E+00  0.0000E+00  0.0000E+00  0.0000E+00  0.0000E+00  0.0000E+00  0.0000E+00  0.0000E+00  0.0000E+00  0.0000E+00  0.0000E+00  0.0000E+00  0.0000E+00  0.0000E+00  0.0000E+00  0.0000E+00
    -15.270  0.0000E+00  0.0000E+00  0.0000E+00  0.0000E+00  0.0000E+00  0.0000E+00  0.0000E+00  0.0000E+00  0.0000E+00  0.0000E+00  0.0000E+00  0.0000E+00  0.0000E+00  0.0000E+00  0.0000E+00  0.0000E+00  0.0000E+00  0.0000E+00
    -14.995  0.0000E+00  0.0000E+00  0.0000E+00  0.0000E+00  0.0000E+00  0.0000E+00  0.0000E+00  0.0000E+00  0.0000E+00  0.0000E+00  0.0000E+00  0.0000E+00  0.0000E+00  0.0000E+00  0.0000E+00  0.0000E+00  0.0000E+00  0.0000E+00
    -14.721  0.0000E+00  0.0000E+00  0.0000E+00  0.0000E+00  0.0000E+00  0.0000E+00  0.0000E+00  0.0000E+00  0.0000E+00  0.0000E+00  0.0000E+00  0.0000E+00  0.0000E+00  0.0000E+00  0.0000E+00  0.0000E+00  0.0000E+00  0.0000E+00
    -14.446  0.0000E+00  0.0000E+00  0.0000E+00  0.0000E+00  0.0000E+00  0.0000E+00  0.0000E+00  0.0000E+00  0.0000E+00  0.0000E+00  0.0000E+00  0.0000E+00  0.0000E+00  0.0000E+00  0.0000E+00  0.0000E+00  0.0000E+00  0.0000E+00
    -14.172  0.0000E+00  0.0000E+00  0.0000E+00  0.0000E+00  0.0000E+00  0.0000E+00  0.0000E+00  0.0000E+00  0.0000E+00  0.0000E+00  0.0000E+00  0.0000E+00  0.0000E+00  0.0000E+00  0.0000E+00  0.0000E+00  0.0000E+00  0.0000E+00
    -13.898  0.0000E+00  0.0000E+00  0.0000E+00  0.0000E+00  0.0000E+00  0.0000E+00  0.0000E+00  0.0000E+00  0.0000E+00  0.0000E+00  0.0000E+00  0.0000E+00  0.0000E+00  0.0000E+00  0.0000E+00  0.0000E+00  0.0000E+00  0.0000E+00
    -13.623  0.0000E+00  0.0000E+00  0.0000E+00  0.0000E+00  0.0000E+00  0.0000E+00  0.0000E+00  0.0000E+00  0.0000E+00  0.0000E+00  0.0000E+00  0.0000E+00  0.0000E+00  0.0000E+00  0.0000E+00  0.0000E+00  0.0000E+00  0.0000E+00
    -13.349  0.0000E+00  0.0000E+00  0.0000E+00  0.0000E+00  0.0000E+00  0.0000E+00  0.0000E+00  0.0000E+00  0.0000E+00  0.0000E+00  0.0000E+00  0.0000E+00  0.0000E+00  0.0000E+00  0.0000E+00  0.0000E+00  0.0000E+00  0.0000E+00
    -13.074  0.0000E+00  0.0000E+00  0.0000E+00  0.0000E+00  0.0000E+00  0.0000E+00  0.0000E+00  0.0000E+00  0.0000E+00  0.0000E+00  0.0000E+00  0.0000E+00  0.0000E+00  0.0000E+00  0.0000E+00  0.0000E+00  0.0000E+00  0.0000E+00
    -12.800  0.0000E+00  0.0000E+00  0.0000E+00  0.0000E+00  0.0000E+00  0.0000E+00  0.0000E+00  0.0000E+00  0.0000E+00  0.0000E+00  0.0000E+00  0.0000E+00  0.0000E+00  0.0000E+00  0.0000E+00  0.0000E+00  0.0000E+00  0.0000E+00
    -12.525  0.0000E+00  0.0000E+00  0.0000E+00  0.0000E+00  0.0000E+00  0.0000E+00  0.0000E+00  0.0000E+00  0.0000E+00  0.0000E+00  0.0000E+00  0.0000E+00  0.0000E+00  0.0000E+00  0.0000E+00  0.0000E+00  0.0000E+00  0.0000E+00
    -12.251  0.0000E+00  0.0000E+00  0.0000E+00  0.0000E+00  0.0000E+00  0.0000E+00  0.0000E+00  0.0000E+00  0.0000E+00  0.0000E+00  0.0000E+00  0.0000E+00  0.0000E+00  0.0000E+00  0.0000E+00  0.0000E+00  0.0000E+00  0.0000E+00
    -11.977  0.0000E+00  0.0000E+00  0.0000E+00  0.0000E+00  0.0000E+00  0.0000E+00  0.0000E+00  0.0000E+00  0.0000E+00  0.0000E+00  0.0000E+00  0.0000E+00  0.0000E+00  0.0000E+00  0.0000E+00  0.0000E+00  0.0000E+00  0.0000E+00
    -11.702  0.0000E+00  0.0000E+00  0.0000E+00  0.0000E+00  0.0000E+00  0.0000E+00  0.0000E+00  0.0000E+00  0.0000E+00  0.0000E+00  0.0000E+00  0.0000E+00  0.0000E+00  0.0000E+00  0.0000E+00  0.0000E+00  0.0000E+00  0.0000E+00
    -11.428  0.0000E+00  0.0000E+00  0.0000E+00  0.0000E+00  0.0000E+00  0.0000E+00  0.0000E+00  0.0000E+00  0.0000E+00  0.0000E+00  0.0000E+00  0.0000E+00  0.0000E+00  0.0000E+00  0.0000E+00  0.0000E+00  0.0000E+00  0.0000E+00
    -11.153  0.0000E+00  0.0000E+00  0.0000E+00  0.0000E+00  0.0000E+00  0.0000E+00  0.0000E+00  0.0000E+00  0.0000E+00  0.0000E+00  0.0000E+00  0.0000E+00  0.0000E+00  0.0000E+00  0.0000E+00  0.0000E+00  0.0000E+00  0.0000E+00
    -10.879  0.0000E+00  0.0000E+00  0.0000E+00  0.0000E+00  0.0000E+00  0.0000E+00  0.0000E+00  0.0000E+00  0.0000E+00  0.0000E+00  0.0000E+00  0.0000E+00  0.0000E+00  0.0000E+00  0.0000E+00  0.0000E+00  0.0000E+00  0.0000E+00
    -10.605  0.0000E+00  0.0000E+00  0.0000E+00  0.0000E+00  0.0000E+00  0.0000E+00  0.0000E+00  0.0000E+00  0.0000E+00  0.0000E+00  0.0000E+00  0.0000E+00  0.0000E+00  0.0000E+00  0.0000E+00  0.0000E+00  0.0000E+00  0.0000E+00
    -10.330  0.0000E+00  0.0000E+00  0.0000E+00  0.0000E+00  0.0000E+00  0.0000E+00  0.0000E+00  0.0000E+00  0.0000E+00  0.0000E+00  0.0000E+00  0.0000E+00  0.0000E+00  0.0000E+00  0.0000E+00  0.0000E+00  0.0000E+00  0.0000E+00
    -10.056  0.0000E+00  0.0000E+00  0.0000E+00  0.0000E+00  0.0000E+00  0.0000E+00  0.0000E+00  0.0000E+00  0.0000E+00  0.0000E+00  0.0000E+00  0.0000E+00  0.0000E+00  0.0000E+00  0.0000E+00  0.0000E+00  0.0000E+00  0.0000E+00
     -9.781  0.0000E+00  0.0000E+00  0.0000E+00  0.0000E+00  0.0000E+00  0.0000E+00  0.0000E+00  0.0000E+00  0.0000E+00  0.0000E+00  0.0000E+00  0.0000E+00  0.0000E+00  0.0000E+00  0.0000E+00  0.0000E+00  0.0000E+00  0.0000E+00