       N       E                     dE             d eps       ncg     rms          ort
DAV:   1     0.252204663144E+03    0.25220E+03   -0.11253E+04   864   0.169E+03
DAV:   2     0.537519652087E+02   -0.19845E+03   -0.18049E+03   864   0.353E+02
DAV:   3    -0.546405182869E+00   -0.54298E+02   -0.52460E+02   864   0.840E+01
DAV:   4    -0.823934112370E+01   -0.76929E+01   -0.75895E+01   864   0.351E+01
DAV:   5    -0.899628407373E+01   -0.75694E+00   -0.75517E+00   864   0.116E+01
SDA:   6    -0.888451120188E+01    0.11177E+00   -0.53657E-01   864   0.134E+00 0.000E+00
DMP:   7    -0.892511563889E+01   -0.40604E-01   -0.26346E-01   864   0.395E-01 0.689E-01
DMP:   8    -0.894212554317E+01   -0.17010E-01   -0.66958E-02   864   0.939E-02 0.192E-01
DMP:   9    -0.894616803674E+01   -0.40425E-02   -0.23762E-02   864   0.460E-02 0.351E-02
DMP:  10    -0.894780196800E+01   -0.16339E-02   -0.13040E-02   864   0.240E-02 0.225E-02
DMP:  11    -0.894875458140E+01   -0.95261E-03   -0.60071E-03   864   0.921E-03 0.152E-02
DMP:  12    -0.894916919512E+01   -0.41461E-03   -0.19009E-03   864   0.252E-03 0.584E-03
DMP:  13    -0.894928858784E+01   -0.11939E-03   -0.51881E-04   864   0.800E-04 0.130E-03
DMP:  14    -0.894932017543E+01   -0.31588E-04   -0.18831E-04   864   0.348E-04 0.323E-04
   1 F= -.89493202E+01 E0= -.89493013E+01  d E =-.377816E-04  mag=    -0.0000
