 vasp.5.4.4.18Apr17-6-g9f103f2a35 (build Sep 01 2023 15:42:28) complex          
  
 executed on             LinuxIFC date 2023.11.23  00:49:56
 running on   54 total cores
 distrk:  each k-point on    9 cores,    6 groups
 distr:  one band on NCORES_PER_BAND=   3 cores,    3 groups


--------------------------------------------------------------------------------------------------------


 INCAR:
 POTCAR:    PAW_PBE Ge_d 03Jul2007                

 ----------------------------------------------------------------------------- 
|                                                                             |
|           W    W    AA    RRRRR   N    N  II  N    N   GGGG   !!!           |
|           W    W   A  A   R    R  NN   N  II  NN   N  G    G  !!!           |
|           W    W  A    A  R    R  N N  N  II  N N  N  G       !!!           |
|           W WW W  AAAAAA  RRRRR   N  N N  II  N  N N  G  GGG   !            |
|           WW  WW  A    A  R   R   N   NN  II  N   NN  G    G                |
|           W    W  A    A  R    R  N    N  II  N    N   GGGG   !!!           |
|                                                                             |
|      For optimal performance we recommend to set                            |
|        NCORE= 4 - approx SQRT( number of cores)                             |
|      NCORE specifies how many cores store one orbital (NPAR=cpu/NCORE).     |
|      This setting can  greatly improve the performance of VASP for DFT.     |
|      The default,   NCORE=1            might be grossly inefficient         |
|      on modern multi-core architectures or massively parallel machines.     |
|      Do your own testing !!!!                                               |
|      Unfortunately you need to use the default for GW and RPA calculations. |
|      (for HF NCORE is supported but not extensively tested yet)             |
|                                                                             |
 ----------------------------------------------------------------------------- 


 ----------------------------------------------------------------------------- 
|                                                                             |
|           W    W    AA    RRRRR   N    N  II  N    N   GGGG   !!!           |
|           W    W   A  A   R    R  NN   N  II  NN   N  G    G  !!!           |
|           W    W  A    A  R    R  N N  N  II  N N  N  G       !!!           |
|           W WW W  AAAAAA  RRRRR   N  N N  II  N  N N  G  GGG   !            |
|           WW  WW  A    A  R   R   N   NN  II  N   NN  G    G                |
|           W    W  A    A  R    R  N    N  II  N    N   GGGG   !!!           |
|                                                                             |
|      You have enabled k-point parallelism (KPAR>1).                         |
|      This developmental code was originally  written by Paul Kent at ORNL,  |
|      and carefully double checked in Vienna.                                |
|      GW as well as linear response parallelism added by Martijn Marsman     |
|      and Georg Kresse.                                                      |
|      Carefully verify results versus KPAR=1.                                |
|      Report problems to Paul Kent and Vienna.                               |
|                                                                             |
 ----------------------------------------------------------------------------- 

 POTCAR:    PAW_PBE Ge_d 03Jul2007                
   VRHFIN =Ge: 3d4s4p                                                           
   LEXCH  = PE                                                                  
   EATOM  =  2596.2402 eV,  190.8183 Ry                                         
                                                                                
   TITEL  = PAW_PBE Ge_d 03Jul2007                                              
   LULTRA =        F    use ultrasoft PP ?                                      
   IUNSCR =        1    unscreen: 0-lin 1-nonlin 2-no                           
   RPACOR =    2.000    partial core radius                                     
   POMASS =   72.610; ZVAL   =   14.000    mass and valenz                      
   RCORE  =    2.300    outmost cutoff radius                                   
   RWIGS  =    2.300; RWIGS  =    1.217    wigner-seitz radius (au A)           
   ENMAX  =  310.294; ENMIN  =  232.720 eV                                      
   ICORE  =        3    local potential                                         
   LCOR   =        T    correct aug charges                                     
   LPAW   =        T    paw PP                                                  
   EAUG   =  531.356                                                            
   DEXC   =    0.000                                                            
   RMAX   =    2.342    core radius for proj-oper                               
   RAUG   =    1.300    factor for augmentation sphere                          
   RDEP   =    2.318    radius for radial grids                                 
   RDEPT  =    1.783    core radius for aug-charge                              
                                                                                
   Atomic configuration                                                         
    9 entries                                                                   
     n  l   j            E        occ.                                          
     1  0  0.50    -10959.8463   2.0000                                         
     2  0  0.50     -1371.6056   2.0000                                         
     2  1  1.50     -1198.4791   6.0000                                         
     3  0  0.50      -168.4733   2.0000                                         
     3  1  1.50      -115.6019   6.0000                                         
     3  2  2.50       -29.3106  10.0000                                         
     4  0  0.50       -11.7309   2.0000                                         
     4  1  0.50        -3.8952   2.0000                                         
     4  3  2.50        -4.0817   0.0000                                         
   Description                                                                  
     l       E           TYP  RCUT    TYP  RCUT                                 
     2    -29.3105938     23  2.200                                             
     2    -13.6058260     23  2.200                                             
     0    -11.7309493     23  2.300                                             
     0     -7.4578696     23  2.300                                             
     1     -3.8952261     23  2.300                                             
     1      6.1178114     23  2.300                                             
     3     -1.3605826     23  2.300                                             
  local pseudopotential read in
  partial core-charges read in
  partial kinetic energy density read in
  atomic valenz-charges read in
  non local Contribution for L=           2  read in
    real space projection operators read in
  non local Contribution for L=           2  read in
    real space projection operators read in
  non local Contribution for L=           0  read in
    real space projection operators read in
  non local Contribution for L=           0  read in
    real space projection operators read in
  non local Contribution for L=           1  read in
    real space projection operators read in
  non local Contribution for L=           1  read in
    real space projection operators read in
    PAW grid and wavefunctions read in
 
   number of l-projection  operators is LMAX  =           6
   number of lm-projection operators is LMMAX =          18
 
  PAW_PBE Ge_d 03Jul2007                :
 energy of atom  1       EATOM=-2596.2402
 kinetic energy error for atom=    0.0077 (will be added to EATOM!!)
 
 
 POSCAR: Ge                                      
  positions in direct lattice
  No initial velocities read in
 exchange correlation table for  LEXCH =        8
   RHO(1)=    0.500       N(1)  =     2000
   RHO(2)=  100.500       N(2)  =     4000
 


--------------------------------------------------------------------------------------------------------


 ion  position               nearest neighbor table
   1  0.000  0.000  0.000-   2 2.44   2 2.44   2 2.44   2 2.44
   2  0.250  0.250  0.250-   1 2.44   1 2.44   1 2.44   1 2.44
 
  LATTYP: Found a face centered cubic cell.
 ALAT       =     5.6330000000
  
  Lattice vectors:
  
 A1 = (   0.0000000000,   2.8165000000,   2.8165000000)
 A2 = (   2.8165000000,   0.0000000000,   2.8165000000)
 A3 = (   2.8165000000,   2.8165000000,   0.0000000000)


Analysis of symmetry for initial positions (statically):
=====================================================================
 Subroutine PRICEL returns:
 Original cell was already a primitive cell.
 

 Routine SETGRP: Setting up the symmetry group for a 
 face centered cubic supercell.


 Subroutine GETGRP returns: Found 48 space group operations
 (whereof 24 operations were pure point group operations)
 out of a pool of 48 trial point group operations.


The static configuration has the point symmetry T_d .
 The point group associated with its full space group is O_h .


Analysis of symmetry for dynamics (positions and initial velocities):
=====================================================================
 Subroutine PRICEL returns:
 Original cell was already a primitive cell.
 

 Routine SETGRP: Setting up the symmetry group for a 
 face centered cubic supercell.


 Subroutine GETGRP returns: Found 48 space group operations
 (whereof 24 operations were pure point group operations)
 out of a pool of 48 trial point group operations.


The dynamic configuration has the point symmetry T_d .
 The point group associated with its full space group is O_h .


Analysis of structural, dynamic, and magnetic symmetry:
=====================================================================
 Subroutine PRICEL returns:
 Original cell was already a primitive cell.
 

 Routine SETGRP: Setting up the symmetry group for a 
 face centered cubic supercell.


 Subroutine GETGRP returns: Found 48 space group operations
 (whereof 24 operations were pure point group operations)
 out of a pool of 48 trial point group operations.


The magnetic configuration has the point symmetry T_d .
 The point group associated with its full space group is O_h .


 Subroutine INISYM returns: Found 48 space group operations
 (whereof 24 operations are pure point group operations),
 and found     1 'primitive' translations

 
 
 KPOINTS: KPOINTS created by Atomic Simulation Env

Automatic generation of k-mesh.
Space group operators:
 irot       det(A)        alpha          n_x          n_y          n_z        tau_x        tau_y        tau_z
    1     1.000000     0.000000     1.000000     0.000000     0.000000     0.000000     0.000000     0.000000
    2     1.000000   120.000000    -0.577350    -0.577350    -0.577350     0.000000     0.000000     0.000000
    3     1.000000   120.000000     0.577350     0.577350     0.577350     0.000000     0.000000     0.000000
    4    -1.000000    90.000000     0.000000     0.000000    -1.000000     0.000000     0.000000     0.000000
    5    -1.000000   180.000000     0.000000     0.707107     0.707107     0.000000     0.000000     0.000000
    6    -1.000000    90.000000     0.000000     1.000000     0.000000     0.000000     0.000000     0.000000
    7     1.000000   180.000000     0.000000     0.000000     1.000000     0.000000     0.000000     0.000000
    8     1.000000   120.000000    -0.577350     0.577350     0.577350     0.000000     0.000000     0.000000
    9     1.000000   120.000000    -0.577350     0.577350    -0.577350     0.000000     0.000000     0.000000
   10    -1.000000    90.000000     0.000000     0.000000     1.000000     0.000000     0.000000     0.000000
   11    -1.000000    90.000000    -1.000000     0.000000     0.000000     0.000000     0.000000     0.000000
   12    -1.000000   180.000000     0.707107     0.000000     0.707107     0.000000     0.000000     0.000000
   13     1.000000   120.000000     0.577350    -0.577350     0.577350     0.000000     0.000000     0.000000
   14     1.000000   120.000000    -0.577350    -0.577350     0.577350     0.000000     0.000000     0.000000
   15     1.000000   180.000000     1.000000     0.000000     0.000000     0.000000     0.000000     0.000000
   16    -1.000000    90.000000     0.000000    -1.000000     0.000000     0.000000     0.000000     0.000000
   17    -1.000000   180.000000     0.707107     0.707107     0.000000     0.000000     0.000000     0.000000
   18    -1.000000    90.000000     1.000000     0.000000     0.000000     0.000000     0.000000     0.000000
   19     1.000000   120.000000     0.577350    -0.577350    -0.577350     0.000000     0.000000     0.000000
   20     1.000000   180.000000     0.000000     1.000000     0.000000     0.000000     0.000000     0.000000
   21     1.000000   120.000000     0.577350     0.577350    -0.577350     0.000000     0.000000     0.000000
   22    -1.000000   180.000000     0.000000    -0.707107     0.707107     0.000000     0.000000     0.000000
   23    -1.000000   180.000000     0.707107    -0.707107     0.000000     0.000000     0.000000     0.000000
   24    -1.000000   180.000000     0.707107     0.000000    -0.707107     0.000000     0.000000     0.000000
   25    -1.000000     0.000000     1.000000     0.000000     0.000000     0.250000     0.250000     0.250000
   26    -1.000000   120.000000    -0.577350    -0.577350    -0.577350     0.250000     0.250000     0.250000
   27    -1.000000   120.000000     0.577350     0.577350     0.577350     0.250000     0.250000     0.250000
   28     1.000000    90.000000     0.000000     0.000000    -1.000000     0.250000     0.250000     0.250000
   29     1.000000   180.000000     0.000000     0.707107     0.707107     0.250000     0.250000     0.250000
   30     1.000000    90.000000     0.000000     1.000000     0.000000     0.250000     0.250000     0.250000
   31    -1.000000   180.000000     0.000000     0.000000     1.000000     0.250000     0.250000     0.250000
   32    -1.000000   120.000000    -0.577350     0.577350     0.577350     0.250000     0.250000     0.250000
   33    -1.000000   120.000000    -0.577350     0.577350    -0.577350     0.250000     0.250000     0.250000
   34     1.000000    90.000000     0.000000     0.000000     1.000000     0.250000     0.250000     0.250000
   35     1.000000    90.000000    -1.000000     0.000000     0.000000     0.250000     0.250000     0.250000
   36     1.000000   180.000000     0.707107     0.000000     0.707107     0.250000     0.250000     0.250000
   37    -1.000000   120.000000     0.577350    -0.577350     0.577350     0.250000     0.250000     0.250000
   38    -1.000000   120.000000    -0.577350    -0.577350     0.577350     0.250000     0.250000     0.250000
   39    -1.000000   180.000000     1.000000     0.000000     0.000000     0.250000     0.250000     0.250000
   40     1.000000    90.000000     0.000000    -1.000000     0.000000     0.250000     0.250000     0.250000
   41     1.000000   180.000000     0.707107     0.707107     0.000000     0.250000     0.250000     0.250000
   42     1.000000    90.000000     1.000000     0.000000     0.000000     0.250000     0.250000     0.250000
   43    -1.000000   120.000000     0.577350    -0.577350    -0.577350     0.250000     0.250000     0.250000
   44    -1.000000   180.000000     0.000000     1.000000     0.000000     0.250000     0.250000     0.250000
   45    -1.000000   120.000000     0.577350     0.577350    -0.577350     0.250000     0.250000     0.250000
   46     1.000000   180.000000     0.000000    -0.707107     0.707107     0.250000     0.250000     0.250000
   47     1.000000   180.000000     0.707107    -0.707107     0.000000     0.250000     0.250000     0.250000
   48     1.000000   180.000000     0.707107     0.000000    -0.707107     0.250000     0.250000     0.250000
 
 Subroutine IBZKPT returns following result:
 ===========================================
 
 Found     16 irreducible k-points:
 
 Following reciprocal coordinates:
            Coordinates               Weight
  0.000000  0.000000  0.000000      1.000000
  0.166667  0.000000  0.000000      8.000000
  0.333333  0.000000  0.000000      8.000000
  0.500000  0.000000  0.000000      4.000000
  0.166667  0.166667  0.000000      6.000000
  0.333333  0.166667  0.000000     24.000000
  0.500000  0.166667  0.000000     24.000000
 -0.333333  0.166667  0.000000     24.000000
 -0.166667  0.166667  0.000000     12.000000
  0.333333  0.333333  0.000000      6.000000
  0.500000  0.333333  0.000000     24.000000
 -0.333333  0.333333  0.000000     12.000000
  0.500000  0.500000  0.000000      3.000000
  0.500000  0.333333  0.166667     24.000000
 -0.333333  0.333333  0.166667     24.000000
 -0.333333  0.500000  0.166667     12.000000
 
 Following cartesian coordinates:
            Coordinates               Weight
  0.000000  0.000000  0.000000      1.000000
 -0.029588  0.029588  0.029588      8.000000
 -0.059175  0.059175  0.059175      8.000000
 -0.088763  0.088763  0.088763      4.000000
  0.000000  0.000000  0.059175      6.000000
 -0.029588  0.029588  0.088763     24.000000
 -0.059175  0.059175  0.118350     24.000000
  0.088763 -0.088763 -0.029588     24.000000
  0.059175 -0.059175  0.000000     12.000000
  0.000000  0.000000  0.118350      6.000000
 -0.029588  0.029588  0.147938     24.000000
  0.118350 -0.118350  0.000000     12.000000
  0.000000  0.000000  0.177525      3.000000
  0.000000  0.059175  0.118350     24.000000
  0.147938 -0.088763 -0.029588     24.000000
  0.177525 -0.118350 -0.000000     12.000000
 


--------------------------------------------------------------------------------------------------------




 Dimension of arrays:
   k-points           NKPTS =     16   k-points in BZ     NKDIM =     16   number of bands    NBANDS=     54
   number of dos      NEDOS =    301   number of ions     NIONS =      2
   non local maximal  LDIM  =      6   non local SUM 2l+1 LMDIM =     18
   total plane-waves  NPLWV =  13824
   max r-space proj   IRMAX =      1   max aug-charges    IRDMAX=  10603
   dimension x,y,z NGX =    24 NGY =   24 NGZ =   24
   dimension x,y,z NGXF=    48 NGYF=   48 NGZF=   48
   support grid    NGXF=    48 NGYF=   48 NGZF=   48
   ions per type =               2
   NGX,Y,Z   is equivalent  to a cutoff of  10.02, 10.02, 10.02 a.u.
   NGXF,Y,Z  is equivalent  to a cutoff of  20.03, 20.03, 20.03 a.u.

 SYSTEM =  unknown system                          
 POSCAR =  Ge                                      

 Startparameter for this run:
   NWRITE =      2    write-flag & timer
   PREC   = n         normal or accurate (medium, high low for compatibility)
   ISTART =      0    job   : 0-new  1-cont  2-samecut
   ICHARG =      2    charge: 1-file 2-atom 10-const
   ISPIN  =      2    spin polarized calculation?
   LNONCOLLINEAR =      F non collinear calculations
   LSORBIT =      F    spin-orbit coupling
   INIWAV =      1    electr: 0-lowe 1-rand  2-diag
   LASPH  =      F    aspherical Exc in radial PAW
   METAGGA=      F    non-selfconsistent MetaGGA calc.

 Electronic Relaxation 1
   ENCUT  =  450.0 eV  33.07 Ry    5.75 a.u.   6.89  6.89  6.89*2*pi/ulx,y,z
   ENINI  =  450.0     initial cutoff
   ENAUG  =  531.4 eV  augmentation charge cutoff
   NELM   =     60;   NELMIN=  2; NELMDL= -5     # of ELM steps 
   EDIFF  = 0.1E-03   stopping-criterion for ELM
   LREAL  =      F    real-space projection
   NLSPLINE    = F    spline interpolate recip. space projectors
   LCOMPAT=      F    compatible to vasp.4.4
   GGA_COMPAT  = T    GGA compatible to vasp.4.4-vasp.4.6
   LMAXPAW     = -100 max onsite density
   LMAXMIX     =    2 max onsite mixed and CHGCAR
   VOSKOWN=      0    Vosko Wilk Nusair interpolation
   ROPT   =    0.00000
 Ionic relaxation
   EDIFFG = 0.1E-02   stopping-criterion for IOM
   NSW    =      0    number of steps for IOM
   NBLOCK =      1;   KBLOCK =      1    inner block; outer block 
   IBRION =     -1    ionic relax: 0-MD 1-quasi-New 2-CG
   NFREE  =      0    steps in history (QN), initial steepest desc. (CG)
   ISIF   =      2    stress and relaxation
   IWAVPR =     10    prediction:  0-non 1-charg 2-wave 3-comb
   ISYM   =      2    0-nonsym 1-usesym 2-fastsym
   LCORR  =      T    Harris-Foulkes like correction to forces

   POTIM  = 0.5000    time-step for ionic-motion
   TEIN   =    0.0    initial temperature
   TEBEG  =    0.0;   TEEND  =   0.0 temperature during run
   SMASS  =  -3.00    Nose mass-parameter (am)
   estimated Nose-frequenzy (Omega)   =  0.10E-29 period in steps =****** mass=  -0.363E-27a.u.
   SCALEE = 1.0000    scale energy and forces
   NPACO  =    256;   APACO  = 16.0  distance and # of slots for P.C.
   PSTRESS=    0.0 pullay stress

  Mass of Ions in am
   POMASS =  72.61
  Ionic Valenz
   ZVAL   =  14.00
  Atomic Wigner-Seitz radii
   RWIGS  =  -1.00
  virtual crystal weights 
   VCA    =   1.00
   NELECT =      28.0000    total number of electrons
   NUPDOWN=      -1.0000    fix difference up-down

 DOS related values:
   EMIN   =  10.00;   EMAX   =-10.00  energy-range for DOS
   EFERMI =   0.00
   ISMEAR =     0;   SIGMA  =   0.05  broadening in eV -4-tet -1-fermi 0-gaus

 Electronic relaxation 2 (details)
   IALGO  =     53    algorithm
   LDIAG  =      T    sub-space diagonalisation (order eigenvalues)
   LSUBROT=      F    optimize rotation matrix (better conditioning)
   TURBO    =      0    0=normal 1=particle mesh
   IRESTART =      0    0=no restart 2=restart with 2 vectors
   NREBOOT  =      0    no. of reboots
   NMIN     =      0    reboot dimension
   EREF     =   0.00    reference energy to select bands
   IMIX   =      4    mixing-type and parameters
     AMIX     =   0.40;   BMIX     =  1.00
     AMIX_MAG =   1.60;   BMIX_MAG =  1.00
     AMIN     =   0.10
     WC   =   100.;   INIMIX=   1;  MIXPRE=   1;  MAXMIX= -45

 Intra band minimization:
   WEIMIN = 0.0000     energy-eigenvalue tresh-hold
   EBREAK =  0.46E-06  absolut break condition
   DEPER  =   0.30     relativ break condition  

   TIME   =   0.40     timestep for ELM

  volume/ion in A,a.u.               =      22.34       150.77
  Fermi-wavevector in a.u.,A,eV,Ry     =   1.400902  2.647321 26.701793  1.962526
  Thomas-Fermi vector in A             =   2.523816
 
 Write flags
   LWAVE        =      T    write WAVECAR
   LDOWNSAMPLE  =      F    k-point downsampling of WAVECAR
   LCHARG       =      T    write CHGCAR
   LVTOT        =      F    write LOCPOT, total local potential
   LVHAR        =      F    write LOCPOT, Hartree potential only
   LELF         =      F    write electronic localiz. function (ELF)
   LORBIT       =     11    0 simple, 1 ext, 2 COOP (PROOUT), +10 PAW based schemes


 Dipole corrections
   LMONO  =      F    monopole corrections only (constant potential shift)
   LDIPOL =      F    correct potential (dipole corrections)
   IDIPOL =      0    1-x, 2-y, 3-z, 4-all directions 
   EPSILON=  1.0000000 bulk dielectric constant

 LDA+U is selected, type is set to LDAUTYPE =  2
   angular momentum for each species LDAUL =     1
   U (eV)           for each species LDAUU =   0.0
   J (eV)           for each species LDAUJ =   0.0
 Exchange correlation treatment:
   GGA     =    PE    GGA type
   LEXCH   =     8    internal setting for exchange type
   VOSKOWN=      0    Vosko Wilk Nusair interpolation
   LHFCALC =     F    Hartree Fock is set to
   LHFONE  =     F    Hartree Fock one center treatment
   AEXX    =    0.0000 exact exchange contribution

 Linear response parameters
   LEPSILON=     F    determine dielectric tensor
   LRPA    =     F    only Hartree local field effects (RPA)
   LNABLA  =     F    use nabla operator in PAW spheres
   LVEL    =     F    velocity operator in full k-point grid
   LINTERFAST=   F  fast interpolation
   KINTER  =     0    interpolate to denser k-point grid
   CSHIFT  =0.1000    complex shift for real part using Kramers Kronig
   OMEGAMAX=  -1.0    maximum frequency
   DEG_THRESHOLD= 0.2000000E-02 threshold for treating states as degnerate
   RTIME   =   -0.100 relaxation time in fs
  (WPLASMAI=    0.000 imaginary part of plasma frequency in eV, 0.658/RTIME)
   DFIELD  = 0.0000000 0.0000000 0.0000000 field for delta impulse in time
 
 Orbital magnetization related:
   ORBITALMAG=     F  switch on orbital magnetization
   LCHIMAG   =     F  perturbation theory with respect to B field
   DQ        =  0.001000  dq finite difference perturbation B field
   LLRAUG    =     F  two centre corrections for induced B field



--------------------------------------------------------------------------------------------------------


 Static calculation
 charge density and potential will be updated during run
 spin polarized calculation
 Conjugate gradient for all bands (Freysoldt, et al. PRB 79, 241103 (2009))
 perform sub-space diagonalisation
    before iterative eigenvector-optimisation
 modified Broyden-mixing scheme, WC =      100.0
 initial mixing is a Kerker type mixing with AMIX =  0.4000 and BMIX =      1.0000
 Hartree-type preconditioning will be used
 using additional bands           40
 reciprocal scheme for non local part
 use partial core corrections
 no Harris-corrections to forces 
 use gradient corrections 
 use of overlap-Matrix (Vanderbilt PP)
 Gauss-broadening in eV      SIGMA  =   0.05


--------------------------------------------------------------------------------------------------------


  energy-cutoff  :      450.00
  volume of cell :       44.68
      direct lattice vectors                 reciprocal lattice vectors
     0.000000000  2.816500000  2.816500000    -0.177525297  0.177525297  0.177525297
     2.816500000  0.000000000  2.816500000     0.177525297 -0.177525297  0.177525297
     2.816500000  2.816500000  0.000000000     0.177525297  0.177525297 -0.177525297

  length of vectors
     3.983132498  3.983132498  3.983132498     0.307482835  0.307482835  0.307482835


 
 k-points in units of 2pi/SCALE and weight: KPOINTS created by Atomic Simulation Env
   0.00000000  0.00000000  0.00000000       0.005
  -0.02958755  0.02958755  0.02958755       0.037
  -0.05917510  0.05917510  0.05917510       0.037
  -0.08876265  0.08876265  0.08876265       0.019
   0.00000000  0.00000000  0.05917510       0.028
  -0.02958755  0.02958755  0.08876265       0.111
  -0.05917510  0.05917510  0.11835020       0.111
   0.08876265 -0.08876265 -0.02958755       0.111
   0.05917510 -0.05917510  0.00000000       0.056
   0.00000000  0.00000000  0.11835020       0.028
  -0.02958755  0.02958755  0.14793775       0.111
   0.11835020 -0.11835020  0.00000000       0.056
   0.00000000  0.00000000  0.17752530       0.014
   0.00000000  0.05917510  0.11835020       0.111
   0.14793775 -0.08876265 -0.02958755       0.111
   0.17752530 -0.11835020 -0.00000000       0.056
 
 k-points in reciprocal lattice and weights: KPOINTS created by Atomic Simulation Env
   0.00000000  0.00000000  0.00000000       0.005
   0.16666667  0.00000000  0.00000000       0.037
   0.33333333  0.00000000  0.00000000       0.037
   0.50000000  0.00000000  0.00000000       0.019
   0.16666667  0.16666667  0.00000000       0.028
   0.33333333  0.16666667  0.00000000       0.111
   0.50000000  0.16666667  0.00000000       0.111
  -0.33333333  0.16666667  0.00000000       0.111
  -0.16666667  0.16666667  0.00000000       0.056
   0.33333333  0.33333333  0.00000000       0.028
   0.50000000  0.33333333  0.00000000       0.111
  -0.33333333  0.33333333  0.00000000       0.056
   0.50000000  0.50000000  0.00000000       0.014
   0.50000000  0.33333333  0.16666667       0.111
  -0.33333333  0.33333333  0.16666667       0.111
  -0.33333333  0.50000000  0.16666667       0.056
 
 position of ions in fractional coordinates (direct lattice) 
   0.00000000  0.00000000  0.00000000
   0.25000000  0.25000000  0.25000000
 
 position of ions in cartesian coordinates  (Angst):
   0.00000000  0.00000000  0.00000000
   1.40825000  1.40825000  1.40825000
 


--------------------------------------------------------------------------------------------------------


 k-point  1 :   0.0000 0.0000 0.0000  plane waves:     941
 k-point  2 :   0.1667 0.0000 0.0000  plane waves:     956
 k-point  3 :   0.3333 0.0000 0.0000  plane waves:     968
 k-point  4 :   0.5000 0.0000 0.0000  plane waves:     978
 k-point  5 :   0.1667 0.1667 0.0000  plane waves:     966
 k-point  6 :   0.3333 0.1667 0.0000  plane waves:     965
 k-point  7 :   0.5000 0.1667 0.0000  plane waves:     972
 k-point  8 :  -0.3333 0.1667 0.0000  plane waves:     969
 k-point  9 :  -0.1667 0.1667 0.0000  plane waves:     961
 k-point 10 :   0.3333 0.3333 0.0000  plane waves:     962
 k-point 11 :   0.5000 0.3333 0.0000  plane waves:     975
 k-point 12 :  -0.3333 0.3333 0.0000  plane waves:     981
 k-point 13 :   0.5000 0.5000 0.0000  plane waves:     982
 k-point 14 :   0.5000 0.3333 0.1667  plane waves:     974
 k-point 15 :  -0.3333 0.3333 0.1667  plane waves:     960
 k-point 16 :  -0.3333 0.5000 0.1667  plane waves:     978

 maximum and minimum number of plane-waves per node :       336      300

 maximum number of plane-waves:       982
 maximum index in each direction: 
   IXMAX=    7   IYMAX=    6   IZMAX=    6
   IXMIN=   -7   IYMIN=   -7   IZMIN=   -7


 parallel 3D FFT for wavefunctions:
    minimum data exchange during FFTs selected (reduces bandwidth)
 parallel 3D FFT for charge:
    minimum data exchange during FFTs selected (reduces bandwidth)


 total amount of memory used by VASP MPI-rank0    42603. kBytes
=======================================================================

   base      :      30000. kBytes
   nonl-proj :        784. kBytes
   fftplans  :        600. kBytes
   grid      :       1402. kBytes
   one-center:         31. kBytes
   wavefun   :       9786. kBytes
 
     INWAV:  cpu time    0.0000: real time    0.0000
 Broyden mixing: mesh for mixing (old mesh)
   NGX = 13   NGY = 13   NGZ = 13
  (NGX  = 48   NGY  = 48   NGZ  = 48)
  gives a total of   2197 points

 initial charge density was supplied:
 charge density of overlapping atoms calculated
 number of electron      28.0000000 magnetization       0.0000000
 keeping initial charge density in first step


--------------------------------------------------------------------------------------------------------


 Maximum index for augmentation-charges         1486 (set IRDMAX)


--------------------------------------------------------------------------------------------------------


 First call to EWALD:  gamma=   0.499
 Maximum number of real-space cells 3x 3x 3
 Maximum number of reciprocal cells 3x 3x 3

    FEWALD:  cpu time    0.0013: real time    0.0013


--------------------------------------- Iteration      1(   1)  ---------------------------------------


    POTLOK:  cpu time    0.0928: real time    0.3484
    SETDIJ:  cpu time    0.0096: real time    0.0118
    TRIAL :  cpu time    0.2050: real time    0.2459
    CORREC:  cpu time    0.0004: real time    0.0004
    --------------------------------------------
      LOOP:  cpu time    0.3139: real time    0.6140

 eigenvalue-minimisations  :  5832
 total energy-change (2. order) : 0.2522047E+03  (-0.1125318E+04)
 number of electron      28.0000000 magnetization       0.0000000
 augmentation part       28.0000000 magnetization       0.0000000

 Free energy of the ion-electron system (eV)
  ---------------------------------------------------
  alpha Z        PSCENC =       131.13230232
  Ewald energy   TEWEN  =     -2699.00129049
  -Hartree energ DENC   =     -1507.28522658
  -exchange      EXHF   =         0.00000000
  -V(xc)+E(xc)   XCENC  =       146.18216515
  PAW double counting   =      3673.23166740    -4543.15754504
  entropy T*S    EENTRO =        -0.00113298
  eigenvalues    EBANDS =      -141.36135413
  atomic energy  EATOM  =      5192.46507749
  ---------------------------------------------------
  free energy    TOTEN  =       252.20466314 eV

  energy without entropy =      252.20579612  energy(sigma->0) =      252.20522963


--------------------------------------------------------------------------------------------------------




--------------------------------------- Iteration      1(   2)  ---------------------------------------


    TRIAL :  cpu time    0.1660: real time    0.1745
    CORREC:  cpu time    0.0004: real time    0.0005
    --------------------------------------------
      LOOP:  cpu time    0.1677: real time    0.1771

 eigenvalue-minimisations  :  4725
 total energy-change (2. order) :-0.1984527E+03  (-0.1804921E+03)
 number of electron      28.0000000 magnetization       0.0000000
 augmentation part       28.0000000 magnetization       0.0000000

 Free energy of the ion-electron system (eV)
  ---------------------------------------------------
  alpha Z        PSCENC =       131.13230232
  Ewald energy   TEWEN  =     -2699.00129049
  -Hartree energ DENC   =     -1507.28522658
  -exchange      EXHF   =         0.00000000
  -V(xc)+E(xc)   XCENC  =       146.18216515
  PAW double counting   =      3673.23166740    -4543.15754504
  entropy T*S    EENTRO =        -0.00039458
  eigenvalues    EBANDS =      -339.81479046
  atomic energy  EATOM  =      5192.46507749
  ---------------------------------------------------
  free energy    TOTEN  =        53.75196521 eV

  energy without entropy =       53.75235978  energy(sigma->0) =       53.75216250


--------------------------------------------------------------------------------------------------------




--------------------------------------- Iteration      1(   3)  ---------------------------------------


    TRIAL :  cpu time    0.1404: real time    0.1478
    CORREC:  cpu time    0.0004: real time    0.0004
    --------------------------------------------
      LOOP:  cpu time    0.1410: real time    0.1485

 eigenvalue-minimisations  :  5283
 total energy-change (2. order) :-0.5429837E+02  (-0.5245964E+02)
 number of electron      28.0000000 magnetization       0.0000000
 augmentation part       28.0000000 magnetization       0.0000000

 Free energy of the ion-electron system (eV)
  ---------------------------------------------------
  alpha Z        PSCENC =       131.13230232
  Ewald energy   TEWEN  =     -2699.00129049
  -Hartree energ DENC   =     -1507.28522658
  -exchange      EXHF   =         0.00000000
  -V(xc)+E(xc)   XCENC  =       146.18216515
  PAW double counting   =      3673.23166740    -4543.15754504
  entropy T*S    EENTRO =        -0.00010081
  eigenvalues    EBANDS =      -394.11345462
  atomic energy  EATOM  =      5192.46507749
  ---------------------------------------------------
  free energy    TOTEN  =        -0.54640518 eV

  energy without entropy =       -0.54630438  energy(sigma->0) =       -0.54635478


--------------------------------------------------------------------------------------------------------




--------------------------------------- Iteration      1(   4)  ---------------------------------------


    TRIAL :  cpu time    0.1227: real time    0.1290
    CORREC:  cpu time    0.0004: real time    0.0004
    --------------------------------------------
      LOOP:  cpu time    0.1233: real time    0.1296

 eigenvalue-minimisations  :  5130
 total energy-change (2. order) :-0.7692936E+01  (-0.7589501E+01)
 number of electron      28.0000000 magnetization       0.0000000
 augmentation part       28.0000000 magnetization       0.0000000

 Free energy of the ion-electron system (eV)
  ---------------------------------------------------
  alpha Z        PSCENC =       131.13230232
  Ewald energy   TEWEN  =     -2699.00129049
  -Hartree energ DENC   =     -1507.28522658
  -exchange      EXHF   =         0.00000000
  -V(xc)+E(xc)   XCENC  =       146.18216515
  PAW double counting   =      3673.23166740    -4543.15754504
  entropy T*S    EENTRO =        -0.00004919
  eigenvalues    EBANDS =      -401.80644218
  atomic energy  EATOM  =      5192.46507749
  ---------------------------------------------------
  free energy    TOTEN  =        -8.23934112 eV

  energy without entropy =       -8.23929193  energy(sigma->0) =       -8.23931653


--------------------------------------------------------------------------------------------------------




--------------------------------------- Iteration      1(   5)  ---------------------------------------


    TRIAL :  cpu time    0.1337: real time    0.1405
    CORREC:  cpu time    0.0004: real time    0.0004
    CHARGE:  cpu time    0.1197: real time    0.2321
    --------------------------------------------
      LOOP:  cpu time    0.2540: real time    0.3732

 eigenvalue-minimisations  :  6030
 total energy-change (2. order) :-0.7569430E+00  (-0.7551652E+00)
 number of electron      27.9999915 magnetization      -0.0000152
 augmentation part       16.8414566 magnetization      -0.0014334

 Free energy of the ion-electron system (eV)
  ---------------------------------------------------
  alpha Z        PSCENC =       131.13230232
  Ewald energy   TEWEN  =     -2699.00129049
  -Hartree energ DENC   =     -1507.28522658
  -exchange      EXHF   =         0.00000000
  -V(xc)+E(xc)   XCENC  =       146.18216515
  PAW double counting   =      3673.23166740    -4543.15754504
  entropy T*S    EENTRO =        -0.00004779
  eigenvalues    EBANDS =      -402.56338653
  atomic energy  EATOM  =      5192.46507749
  ---------------------------------------------------
  free energy    TOTEN  =        -8.99628407 eV

  energy without entropy =       -8.99623628  energy(sigma->0) =       -8.99626018


--------------------------------------------------------------------------------------------------------




--------------------------------------- Iteration      1(   6)  ---------------------------------------


    POTLOK:  cpu time    0.0097: real time    0.0102
    SETDIJ:  cpu time    0.0047: real time    0.0049
    TRIAL :  cpu time    0.0618: real time    0.1363
    CORREC:  cpu time    0.0005: real time    0.0005
    CHARGE:  cpu time    0.0181: real time    0.0188
    --------------------------------------------
      LOOP:  cpu time    0.0952: real time    0.1712

 eigenvalue-minimisations  :     0
 total energy-change (2. order) : 0.1117729E+00  (-0.5365728E-01)
 number of electron      27.9999915 magnetization      -0.0000130
 augmentation part       16.8401949 magnetization      -0.0006485

 Free energy of the ion-electron system (eV)
  ---------------------------------------------------
  alpha Z        PSCENC =       131.13230232
  Ewald energy   TEWEN  =     -2699.00129049
  -Hartree energ DENC   =     -1511.28978826
  -exchange      EXHF   =         0.00000000
  -V(xc)+E(xc)   XCENC  =       145.95604302
  PAW double counting   =      4593.96255938    -5470.42497931
  entropy T*S    EENTRO =        -0.00004390
  eigenvalues    EBANDS =      -391.68438756
  atomic energy  EATOM  =      5192.46507749
  ---------------------------------------------------
  free energy    TOTEN  =        -8.88451120 eV

  energy without entropy =       -8.88446730  energy(sigma->0) =       -8.88448925


--------------------------------------------------------------------------------------------------------




--------------------------------------- Iteration      1(   7)  ---------------------------------------


    POTLOK:  cpu time    0.0100: real time    0.0102
    SETDIJ:  cpu time    0.0049: real time    0.0050
    TRIAL :  cpu time    0.0601: real time    0.0615
    CORREC:  cpu time    0.0004: real time    0.0004
    CHARGE:  cpu time    0.0061: real time    0.0062
    --------------------------------------------
      LOOP:  cpu time    0.0820: real time    0.0837

 eigenvalue-minimisations  :     0
 total energy-change (2. order) :-0.4060444E-01  (-0.2634641E-01)
 number of electron      27.9999915 magnetization      -0.0000106
 augmentation part       16.8419948 magnetization      -0.0000560

 Free energy of the ion-electron system (eV)
  ---------------------------------------------------
  alpha Z        PSCENC =       131.13230232
  Ewald energy   TEWEN  =     -2699.00129049
  -Hartree energ DENC   =     -1510.16090274
  -exchange      EXHF   =         0.00000000
  -V(xc)+E(xc)   XCENC  =       145.91874306
  PAW double counting   =      4581.52625947    -5457.22587475
  entropy T*S    EENTRO =        -0.00004070
  eigenvalues    EBANDS =      -393.57938610
  atomic energy  EATOM  =      5192.46507749
  ---------------------------------------------------
  free energy    TOTEN  =        -8.92511564 eV

  energy without entropy =       -8.92507493  energy(sigma->0) =       -8.92509529


--------------------------------------------------------------------------------------------------------




--------------------------------------- Iteration      1(   8)  ---------------------------------------


    POTLOK:  cpu time    0.0100: real time    0.0101
    SETDIJ:  cpu time    0.0050: real time    0.0050
    TRIAL :  cpu time    0.0575: real time    0.0588
    CORREC:  cpu time    0.0004: real time    0.0005
    CHARGE:  cpu time    0.0058: real time    0.0058
    --------------------------------------------
      LOOP:  cpu time    0.0790: real time    0.0805

 eigenvalue-minimisations  :     0
 total energy-change (2. order) :-0.1700990E-01  (-0.6695831E-02)
 number of electron      27.9999915 magnetization      -0.0000086
 augmentation part       16.8461171 magnetization       0.0001085

 Free energy of the ion-electron system (eV)
  ---------------------------------------------------
  alpha Z        PSCENC =       131.13230232
  Ewald energy   TEWEN  =     -2699.00129049
  -Hartree energ DENC   =     -1509.20068510
  -exchange      EXHF   =         0.00000000
  -V(xc)+E(xc)   XCENC  =       145.89133284
  PAW double counting   =      4567.19877198    -5442.56348473
  entropy T*S    EENTRO =        -0.00003902
  eigenvalues    EBANDS =      -394.86410915
  atomic energy  EATOM  =      5192.46507749
  ---------------------------------------------------
  free energy    TOTEN  =        -8.94212554 eV

  energy without entropy =       -8.94208653  energy(sigma->0) =       -8.94210603


--------------------------------------------------------------------------------------------------------




--------------------------------------- Iteration      1(   9)  ---------------------------------------


    POTLOK:  cpu time    0.0099: real time    0.0100
    SETDIJ:  cpu time    0.0049: real time    0.0050
    TRIAL :  cpu time    0.0578: real time    0.0590
    CORREC:  cpu time    0.0004: real time    0.0004
    CHARGE:  cpu time    0.0058: real time    0.0058
    --------------------------------------------
      LOOP:  cpu time    0.0791: real time    0.0805

 eigenvalue-minimisations  :     0
 total energy-change (2. order) :-0.4042494E-02  (-0.2376230E-02)
 number of electron      27.9999915 magnetization      -0.0000069
 augmentation part       16.8497101 magnetization       0.0000561

 Free energy of the ion-electron system (eV)
  ---------------------------------------------------
  alpha Z        PSCENC =       131.13230232
  Ewald energy   TEWEN  =     -2699.00129049
  -Hartree energ DENC   =     -1508.70013276
  -exchange      EXHF   =         0.00000000
  -V(xc)+E(xc)   XCENC  =       145.88186242
  PAW double counting   =      4555.34920470    -5430.86613370
  entropy T*S    EENTRO =        -0.00003815
  eigenvalues    EBANDS =      -395.20701900
  atomic energy  EATOM  =      5192.46507749
  ---------------------------------------------------
  free energy    TOTEN  =        -8.94616804 eV

  energy without entropy =       -8.94612988  energy(sigma->0) =       -8.94614896


--------------------------------------------------------------------------------------------------------




--------------------------------------- Iteration      1(  10)  ---------------------------------------


    POTLOK:  cpu time    0.0099: real time    0.0100
    SETDIJ:  cpu time    0.0050: real time    0.0050
    TRIAL :  cpu time    0.0580: real time    0.0592
    CORREC:  cpu time    0.0004: real time    0.0004
    CHARGE:  cpu time    0.0058: real time    0.0058
    --------------------------------------------
      LOOP:  cpu time    0.0794: real time    0.0808

 eigenvalue-minimisations  :     0
 total energy-change (2. order) :-0.1633931E-02  (-0.1304050E-02)
 number of electron      27.9999915 magnetization      -0.0000053
 augmentation part       16.8517227 magnetization      -0.0000056

 Free energy of the ion-electron system (eV)
  ---------------------------------------------------
  alpha Z        PSCENC =       131.13230232
  Ewald energy   TEWEN  =     -2699.00129049
  -Hartree energ DENC   =     -1508.42403265
  -exchange      EXHF   =         0.00000000
  -V(xc)+E(xc)   XCENC  =       145.87847793
  PAW double counting   =      4548.27727519    -5423.99443849
  entropy T*S    EENTRO =        -0.00003764
  eigenvalues    EBANDS =      -395.28113511
  atomic energy  EATOM  =      5192.46507749
  ---------------------------------------------------
  free energy    TOTEN  =        -8.94780197 eV

  energy without entropy =       -8.94776433  energy(sigma->0) =       -8.94778315


--------------------------------------------------------------------------------------------------------




--------------------------------------- Iteration      1(  11)  ---------------------------------------


    POTLOK:  cpu time    0.0099: real time    0.0100
    SETDIJ:  cpu time    0.0050: real time    0.0050
    TRIAL :  cpu time    0.0568: real time    0.0579
    CORREC:  cpu time    0.0004: real time    0.0004
    CHARGE:  cpu time    0.0057: real time    0.0058
    --------------------------------------------
      LOOP:  cpu time    0.0781: real time    0.0794

 eigenvalue-minimisations  :     0
 total energy-change (2. order) :-0.9526134E-03  (-0.6007092E-03)
 number of electron      27.9999915 magnetization      -0.0000037
 augmentation part       16.8527416 magnetization      -0.0000164

 Free energy of the ion-electron system (eV)
  ---------------------------------------------------
  alpha Z        PSCENC =       131.13230232
  Ewald energy   TEWEN  =     -2699.00129049
  -Hartree energ DENC   =     -1508.20129666
  -exchange      EXHF   =         0.00000000
  -V(xc)+E(xc)   XCENC  =       145.87406655
  PAW double counting   =      4545.66767794    -5421.43422587
  entropy T*S    EENTRO =        -0.00003739
  eigenvalues    EBANDS =      -395.45102823
  atomic energy  EATOM  =      5192.46507749
  ---------------------------------------------------
  free energy    TOTEN  =        -8.94875458 eV

  energy without entropy =       -8.94871719  energy(sigma->0) =       -8.94873589


--------------------------------------------------------------------------------------------------------




--------------------------------------- Iteration      1(  12)  ---------------------------------------


    POTLOK:  cpu time    0.0098: real time    0.0099
    SETDIJ:  cpu time    0.0052: real time    0.0052
    TRIAL :  cpu time    0.0575: real time    0.0588
    CORREC:  cpu time    0.0004: real time    0.0004
    CHARGE:  cpu time    0.0060: real time    0.0061
    --------------------------------------------
      LOOP:  cpu time    0.0793: real time    0.0807

 eigenvalue-minimisations  :     0
 total energy-change (2. order) :-0.4146137E-03  (-0.1900901E-03)
 number of electron      27.9999915 magnetization      -0.0000025
 augmentation part       16.8534802 magnetization      -0.0000017

 Free energy of the ion-electron system (eV)
  ---------------------------------------------------
  alpha Z        PSCENC =       131.13230232
  Ewald energy   TEWEN  =     -2699.00129049
  -Hartree energ DENC   =     -1508.02475247
  -exchange      EXHF   =         0.00000000
  -V(xc)+E(xc)   XCENC  =       145.86937304
  PAW double counting   =      4545.72484439    -5421.46003413
  entropy T*S    EENTRO =        -0.00003741
  eigenvalues    EBANDS =      -395.65465195
  atomic energy  EATOM  =      5192.46507749
  ---------------------------------------------------
  free energy    TOTEN  =        -8.94916920 eV

  energy without entropy =       -8.94913179  energy(sigma->0) =       -8.94915049


--------------------------------------------------------------------------------------------------------




--------------------------------------- Iteration      1(  13)  ---------------------------------------


    POTLOK:  cpu time    0.0098: real time    0.0099
    SETDIJ:  cpu time    0.0053: real time    0.0053
    TRIAL :  cpu time    0.0567: real time    0.0580
    CORREC:  cpu time    0.0004: real time    0.0004
    CHARGE:  cpu time    0.0058: real time    0.0059
    --------------------------------------------
      LOOP:  cpu time    0.0785: real time    0.0799

 eigenvalue-minimisations  :     0
 total energy-change (2. order) :-0.1193927E-03  (-0.5188096E-04)
 number of electron      27.9999915 magnetization      -0.0000016
 augmentation part       16.8541346 magnetization       0.0000090

 Free energy of the ion-electron system (eV)
  ---------------------------------------------------
  alpha Z        PSCENC =       131.13230232
  Ewald energy   TEWEN  =     -2699.00129049
  -Hartree energ DENC   =     -1507.92183421
  -exchange      EXHF   =         0.00000000
  -V(xc)+E(xc)   XCENC  =       145.86652896
  PAW double counting   =      4546.73751883    -5422.45982744
  entropy T*S    EENTRO =        -0.00003758
  eigenvalues    EBANDS =      -395.76772664
  atomic energy  EATOM  =      5192.46507749
  ---------------------------------------------------
  free energy    TOTEN  =        -8.94928859 eV

  energy without entropy =       -8.94925101  energy(sigma->0) =       -8.94926980


--------------------------------------------------------------------------------------------------------




--------------------------------------- Iteration      1(  14)  ---------------------------------------


    POTLOK:  cpu time    0.0098: real time    0.0099
    SETDIJ:  cpu time    0.0050: real time    0.0050
    TRIAL :  cpu time    0.0585: real time    0.0599
    CORREC:  cpu time    0.0004: real time    0.0004
    EDDIAG:  cpu time    0.0270: real time    0.0292
    CHARGE:  cpu time    0.0095: real time    0.0096
    --------------------------------------------
      LOOP:  cpu time    0.1105: real time    0.1144

 eigenvalue-minimisations  :     0
 total energy-change (2. order) :-0.3158759E-04  (-0.1883102E-04)
 number of electron      27.9999915 magnetization      -0.0000010
 augmentation part       16.8546109 magnetization       0.0000079

 Free energy of the ion-electron system (eV)
  ---------------------------------------------------
  alpha Z        PSCENC =       131.13230232
  Ewald energy   TEWEN  =     -2699.00129049
  -Hartree energ DENC   =     -1507.88250449
  -exchange      EXHF   =         0.00000000
  -V(xc)+E(xc)   XCENC  =       145.86568352
  PAW double counting   =      4547.73536066    -5423.48127601
  entropy T*S    EENTRO =        -0.00003778
  eigenvalues    EBANDS =      -395.78263560
  atomic energy  EATOM  =      5192.46507749
  ---------------------------------------------------
  free energy    TOTEN  =        -8.94932018 eV

  energy without entropy =       -8.94928239  energy(sigma->0) =       -8.94930128


--------------------------------------------------------------------------------------------------------


  average scaling for gradient   0.8472


 average (electrostatic) potential at core
  the test charge radii are     0.9911
  (the norm of the test charge is              1.0000)
       1 -74.2219       2 -74.2219
 
 
 
 E-fermi :   5.2134     XC(G=0):  -9.9802     alpha+bet :-10.5537


 spin component 1

 k-point     1 :       0.0000    0.0000    0.0000
  band No.  band energies     occupation 
      1     -19.7061      1.00000
      2     -19.7061      1.00000
      3     -19.7061      1.00000
      4     -19.6699      1.00000
      5     -19.6699      1.00000
      6     -19.4514      1.00000
      7     -19.4514      1.00000
      8     -19.4514      1.00000
      9     -19.4373      1.00000
     10     -19.4373      1.00000
     11      -7.7448      1.00000
     12       5.1290      0.99255
     13       5.1290      0.99252
     14       5.1290      0.99249
     15       5.2856      0.02216
     16       7.6858      0.00000
     17       7.6858      0.00000
     18       7.6858      0.00000
     19      11.5902      0.00000
     20      14.6438      0.00000
     21      14.6438      0.00000
     22      15.9534      0.00000
     23      15.9534      0.00000
     24      15.9534      0.00000
     25      19.0274      0.00000
     26      30.6115      0.00000
     27      30.6115      0.00000
     28      30.6115      0.00000
     29      31.2630      0.00000
     30      31.2630      0.00000
     31      31.2630      0.00000
     32      31.8323      0.00000
     33      31.8323      0.00000
     34      31.8323      0.00000
     35      32.8662      0.00000
     36      32.8663      0.00000
     37      39.8770      0.00000
     38      44.2627      0.00000
     39      44.7844      0.00000
     40      44.8644      0.00000
     41      45.0433      0.00000
     42      45.1558      0.00000
     43      45.3938      0.00000
     44      45.7459      0.00000
     45      46.1189      0.00000
     46      46.2307      0.00000
     47      46.3714      0.00000
     48      46.5538      0.00000
     49      46.6983      0.00000
     50      46.9306      0.00000
     51      47.1039      0.00000
     52      47.4972      0.00000
     53      47.6439      0.00000
     54      47.8296      0.00000

 k-point     2 :       0.1667    0.0000    0.0000
  band No.  band energies     occupation 
      1     -19.7187      1.00000
      2     -19.7187      1.00000
      3     -19.7019      1.00000
      4     -19.6517      1.00000
      5     -19.6517      1.00000
      6     -19.4690      1.00000
      7     -19.4690      1.00000
      8     -19.4567      1.00000
      9     -19.4229      1.00000
     10     -19.4228      1.00000
     11      -7.4041      1.00000
     12       1.9666      1.00000
     13       4.5976      1.00000
     14       4.5976      1.00000
     15       6.1419      0.00000
     16       8.3882      0.00000
     17       8.3882      0.00000
     18       9.3500      0.00000
     19      12.9963      0.00000
     20      13.4977      0.00000
     21      13.4977      0.00000
     22      15.1623      0.00000
     23      18.4241      0.00000
     24      18.4241      0.00000
     25      21.2981      0.00000
     26      26.0089      0.00000
     27      26.0089      0.00000
     28      26.2464      0.00000
     29      31.1650      0.00000
     30      31.1650      0.00000
     31      31.5448      0.00000
     32      32.6224      0.00000
     33      32.6224      0.00000
     34      35.0425      0.00000
     35      38.1126      0.00000
     36      38.1131      0.00000
     37      38.1501      0.00000
     38      39.1672      0.00000
     39      39.1675      0.00000
     40      41.7214      0.00000
     41      41.8733      0.00000
     42      41.9052      0.00000
     43      42.6177      0.00000
     44      42.6273      0.00000
     45      42.6495      0.00000
     46      42.7160      0.00000
     47      44.9036      0.00000
     48      45.8607      0.00000
     49      45.9495      0.00000
     50      46.1569      0.00000
     51      47.9698      0.00000
     52      48.2894      0.00000
     53      49.5409      0.00000
     54      50.8206      0.00000

 k-point     3 :       0.3333    0.0000    0.0000
  band No.  band energies     occupation 
      1     -19.7292      1.00000
      2     -19.7292      1.00000
      3     -19.6929      1.00000
      4     -19.6319      1.00000
      5     -19.6319      1.00000
      6     -19.4836      1.00000
      7     -19.4836      1.00000
      8     -19.4673      1.00000
      9     -19.4121      1.00000
     10     -19.4121      1.00000
     11      -6.4584      1.00000
     12      -0.9956      1.00000
     13       3.9437      1.00000
     14       3.9437      1.00000
     15       5.5820      0.00000
     16       8.9190      0.00000
     17       8.9191      0.00000
     18      12.2334      0.00000
     19      13.0319      0.00000
     20      14.1365      0.00000
     21      14.1365      0.00000
     22      17.6622      0.00000
     23      21.0794      0.00000
     24      21.0794      0.00000
     25      22.2025      0.00000
     26      22.4642      0.00000
     27      22.4642      0.00000
     28      25.5653      0.00000
     29      31.4622      0.00000
     30      32.0663      0.00000
     31      32.0663      0.00000
     32      32.2544      0.00000
     33      32.8542      0.00000
     34      32.8542      0.00000
     35      33.4344      0.00000
     36      33.4344      0.00000
     37      36.3866      0.00000
     38      38.0296      0.00000
     39      38.9620      0.00000
     40      38.9629      0.00000
     41      39.3037      0.00000
     42      39.3037      0.00000
     43      39.7108      0.00000
     44      40.9304      0.00000
     45      44.0633      0.00000
     46      44.9104      0.00000
     47      45.0044      0.00000
     48      45.8544      0.00000
     49      45.8708      0.00000
     50      47.1652      0.00000
     51      47.2252      0.00000
     52      47.5949      0.00000
     53      48.8054      0.00000
     54      52.9828      0.00000

 k-point     4 :       0.5000    0.0000    0.0000
  band No.  band energies     occupation 
      1     -19.7317      1.00000
      2     -19.7317      1.00000
      3     -19.6881      1.00000
      4     -19.6264      1.00000
      5     -19.6264      1.00000
      6     -19.4870      1.00000
      7     -19.4870      1.00000
      8     -19.4728      1.00000
      9     -19.4094      1.00000
     10     -19.4094      1.00000
     11      -5.6227      1.00000
     12      -2.5300      1.00000
     13       3.7026      1.00000
     14       3.7026      1.00000
     15       5.3538      0.00004
     16       8.8817      0.00000
     17       8.8817      0.00000
     18      12.2692      0.00000
     19      15.7883      0.00000
     20      16.3802      0.00000
     21      16.4214      0.00000
     22      16.4214      0.00000
     23      17.6709      0.00000
     24      17.6709      0.00000
     25      24.0274      0.00000
     26      26.2474      0.00000
     27      26.8633      0.00000
     28      26.8633      0.00000
     29      27.6114      0.00000
     30      27.6114      0.00000
     31      30.6810      0.00000
     32      31.2804      0.00000
     33      32.7424      0.00000
     34      32.7849      0.00000
     35      32.7849      0.00000
     36      34.0183      0.00000
     37      34.0183      0.00000
     38      37.7002      0.00000
     39      37.7002      0.00000
     40      37.7836      0.00000
     41      37.7838      0.00000
     42      38.4623      0.00000
     43      38.5279      0.00000
     44      39.4785      0.00000
     45      43.6849      0.00000
     46      45.7597      0.00000
     47      45.7839      0.00000
     48      46.3442      0.00000
     49      46.4028      0.00000
     50      47.6036      0.00000
     51      52.4186      0.00000
     52      53.1385      0.00000
     53      53.8740      0.00000
     54      54.4369      0.00000

 k-point     5 :       0.1667    0.1667    0.0000
  band No.  band energies     occupation 
      1     -19.7161      1.00000
      2     -19.7161      1.00000
      3     -19.7160      1.00000
      4     -19.6536      1.00000
      5     -19.6307      1.00000
      6     -19.5041      1.00000
      7     -19.4522      1.00000
      8     -19.4364      1.00000
      9     -19.4364      1.00000
     10     -19.4201      1.00000
     11      -7.2872      1.00000
     12       1.9792      1.00000
     13       3.8171      1.00000
     14       3.8171      1.00000
     15       6.7033      0.00000
     16       7.9519      0.00000
     17       9.5708      0.00000
     18       9.5708      0.00000
     19      12.0199      0.00000
     20      13.5918      0.00000
     21      15.1196      0.00000
     22      16.9046      0.00000
     23      16.9046      0.00000
     24      17.8068      0.00000
     25      22.7213      0.00000
     26      25.6237      0.00000
     27      25.6237      0.00000
     28      26.6743      0.00000
     29      27.0436      0.00000
     30      31.4691      0.00000
     31      31.4691      0.00000
     32      32.2756      0.00000
     33      35.0364      0.00000
     34      37.6367      0.00000
     35      37.6834      0.00000
     36      37.6836      0.00000
     37      38.0394      0.00000
     38      38.0421      0.00000
     39      38.3578      0.00000
     40      38.9195      0.00000
     41      41.5434      0.00000
     42      42.2237      0.00000
     43      42.2465      0.00000
     44      42.9662      0.00000
     45      43.6323      0.00000
     46      43.7268      0.00000
     47      44.5314      0.00000
     48      44.7960      0.00000
     49      45.0742      0.00000
     50      48.3967      0.00000
     51      48.6674      0.00000
     52      49.0847      0.00000
     53      49.8591      0.00000
     54      50.8991      0.00000

 k-point     6 :       0.3333    0.1667    0.0000
  band No.  band energies     occupation 
      1     -19.7372      1.00000
      2     -19.7268      1.00000
      3     -19.6957      1.00000
      4     -19.6323      1.00000
      5     -19.6043      1.00000
      6     -19.5304      1.00000
      7     -19.4749      1.00000
      8     -19.4502      1.00000
      9     -19.4181      1.00000
     10     -19.4041      1.00000
     11      -6.5209      1.00000
     12      -0.3029      1.00000
     13       2.8130      1.00000
     14       3.1968      1.00000
     15       6.9106      0.00000
     16       8.2967      0.00000
     17      10.0836      0.00000
     18      10.4481      0.00000
     19      13.6914      0.00000
     20      14.9093      0.00000
     21      15.4566      0.00000
     22      17.2537      0.00000
     23      19.7458      0.00000
     24      21.0583      0.00000
     25      21.3849      0.00000
     26      21.5733      0.00000
     27      25.8638      0.00000
     28      26.6173      0.00000
     29      26.8970      0.00000
     30      28.3323      0.00000
     31      31.3412      0.00000
     32      32.2037      0.00000
     33      34.3684      0.00000
     34      34.3993      0.00000
     35      34.6330      0.00000
     36      35.7424      0.00000
     37      37.2135      0.00000
     38      37.5195      0.00000
     39      38.7105      0.00000
     40      39.2604      0.00000
     41      39.9552      0.00000
     42      40.0880      0.00000
     43      40.8950      0.00000
     44      41.8354      0.00000
     45      43.0900      0.00000
     46      44.0715      0.00000
     47      44.9775      0.00000
     48      46.5406      0.00000
     49      46.8041      0.00000
     50      47.0977      0.00000
     51      48.5272      0.00000
     52      49.0074      0.00000
     53      49.7073      0.00000
     54      51.1172      0.00000

 k-point     7 :       0.5000    0.1667    0.0000
  band No.  band energies     occupation 
      1     -19.7487      1.00000
      2     -19.7352      1.00000
      3     -19.6712      1.00000
      4     -19.6125      1.00000
      5     -19.6037      1.00000
      6     -19.5250      1.00000
      7     -19.4976      1.00000
      8     -19.4777      1.00000
      9     -19.4048      1.00000
     10     -19.3916      1.00000
     11      -5.4470      1.00000
     12      -2.3199      1.00000
     13       1.9744      1.00000
     14       3.1298      1.00000
     15       6.7701      0.00000
     16       8.9465      0.00000
     17      10.1306      0.00000
     18      11.5875      0.00000
     19      14.4240      0.00000
     20      16.2463      0.00000
     21      16.4384      0.00000
     22      17.1238      0.00000
     23      18.2202      0.00000
     24      21.6949      0.00000
     25      23.3123      0.00000
     26      24.1466      0.00000
     27      25.5341      0.00000
     28      26.4320      0.00000
     29      27.6890      0.00000
     30      28.5753      0.00000
     31      28.9727      0.00000
     32      31.1313      0.00000
     33      31.1889      0.00000
     34      32.5234      0.00000
     35      32.7895      0.00000
     36      33.0112      0.00000
     37      34.2158      0.00000
     38      35.8900      0.00000
     39      37.4611      0.00000
     40      38.1668      0.00000
     41      38.8885      0.00000
     42      39.5757      0.00000
     43      41.6448      0.00000
     44      42.7087      0.00000
     45      42.7930      0.00000
     46      44.5614      0.00000
     47      44.9184      0.00000
     48      47.3906      0.00000
     49      49.0269      0.00000
     50      50.1231      0.00000
     51      50.4236      0.00000
     52      51.1677      0.00000
     53      51.9668      0.00000
     54      54.2175      0.00000

 k-point     8 :      -0.3333    0.1667    0.0000
  band No.  band energies     occupation 
      1     -19.7452      1.00000
      2     -19.7387      1.00000
      3     -19.6669      1.00000
      4     -19.6248      1.00000
      5     -19.6043      1.00000
      6     -19.5113      1.00000
      7     -19.4944      1.00000
      8     -19.4870      1.00000
      9     -19.3998      1.00000
     10     -19.3970      1.00000
     11      -5.7859      1.00000
     12      -1.7734      1.00000
     13       1.7632      1.00000
     14       3.6249      1.00000
     15       6.9178      0.00000
     16       9.2028      0.00000
     17       9.5982      0.00000
     18      11.9407      0.00000
     19      13.4999      0.00000
     20      14.3231      0.00000
     21      16.2246      0.00000
     22      18.0490      0.00000
     23      19.8393      0.00000
     24      21.6356      0.00000
     25      21.8276      0.00000
     26      23.3248      0.00000
     27      26.0716      0.00000
     28      27.4732      0.00000
     29      28.0748      0.00000
     30      28.5603      0.00000
     31      29.3299      0.00000
     32      29.4563      0.00000
     33      32.2278      0.00000
     34      32.6543      0.00000
     35      32.9880      0.00000
     36      33.3326      0.00000
     37      35.2093      0.00000
     38      37.0700      0.00000
     39      38.3227      0.00000
     40      38.9593      0.00000
     41      39.3246      0.00000
     42      39.4005      0.00000
     43      41.6319      0.00000
     44      41.8774      0.00000
     45      42.0190      0.00000
     46      44.8287      0.00000
     47      44.9763      0.00000
     48      45.9217      0.00000
     49      46.4563      0.00000
     50      48.3029      0.00000
     51      50.9790      0.00000
     52      51.9774      0.00000
     53      53.0375      0.00000
     54      53.8999      0.00000

 k-point     9 :      -0.1667    0.1667    0.0000
  band No.  band energies     occupation 
      1     -19.7330      1.00000
      2     -19.7282      1.00000
      3     -19.6897      1.00000
      4     -19.6422      1.00000
      5     -19.6234      1.00000
      6     -19.4978      1.00000
      7     -19.4830      1.00000
      8     -19.4535      1.00000
      9     -19.4203      1.00000
     10     -19.4057      1.00000
     11      -6.8508      1.00000
     12       0.4111      1.00000
     13       2.5430      1.00000
     14       4.4238      1.00000
     15       7.1179      0.00000
     16       8.7064      0.00000
     17       8.9374      0.00000
     18      10.3047      0.00000
     19      12.4579      0.00000
     20      14.5664      0.00000
     21      14.5746      0.00000
     22      17.0419      0.00000
     23      18.2428      0.00000
     24      21.0142      0.00000
     25      21.7929      0.00000
     26      24.0464      0.00000
     27      25.7113      0.00000
     28      26.3560      0.00000
     29      26.7085      0.00000
     30      28.3765      0.00000
     31      31.7857      0.00000
     32      33.8693      0.00000
     33      34.8136      0.00000
     34      35.1347      0.00000
     35      35.7448      0.00000
     36      35.9163      0.00000
     37      38.2427      0.00000
     38      38.6442      0.00000
     39      39.0559      0.00000
     40      39.4336      0.00000
     41      39.6468      0.00000
     42      40.6316      0.00000
     43      41.5130      0.00000
     44      41.5834      0.00000
     45      42.2054      0.00000
     46      42.2911      0.00000
     47      44.2750      0.00000
     48      44.4226      0.00000
     49      46.8766      0.00000
     50      47.1591      0.00000
     51      47.6834      0.00000
     52      48.6552      0.00000
     53      49.5216      0.00000
     54      51.8473      0.00000

 k-point    10 :       0.3333    0.3333    0.0000
  band No.  band energies     occupation 
      1     -19.7334      1.00000
      2     -19.7334      1.00000
      3     -19.7018      1.00000
      4     -19.6095      1.00000
      5     -19.5810      1.00000
      6     -19.5618      1.00000
      7     -19.4933      1.00000
      8     -19.4386      1.00000
      9     -19.4081      1.00000
     10     -19.4081      1.00000
     11      -5.9419      1.00000
     12      -1.0820      1.00000
     13       2.4834      1.00000
     14       2.4834      1.00000
     15       5.7751      0.00000
     16       7.0980      0.00000
     17      12.5235      0.00000
     18      12.5235      0.00000
     19      13.7019      0.00000
     20      16.5518      0.00000
     21      17.0774      0.00000
     22      19.7896      0.00000
     23      19.7896      0.00000
     24      20.3058      0.00000
     25      20.8795      0.00000
     26      20.8795      0.00000
     27      22.3303      0.00000
     28      23.3834      0.00000
     29      29.4119      0.00000
     30      30.4878      0.00000
     31      30.5617      0.00000
     32      30.5617      0.00000
     33      31.6259      0.00000
     34      32.8374      0.00000
     35      32.8374      0.00000
     36      33.7095      0.00000
     37      36.8702      0.00000
     38      38.8535      0.00000
     39      39.0645      0.00000
     40      39.0657      0.00000
     41      41.8156      0.00000
     42      41.8158      0.00000
     43      42.6298      0.00000
     44      43.1574      0.00000
     45      43.3938      0.00000
     46      45.1208      0.00000
     47      45.1598      0.00000
     48      45.3323      0.00000
     49      45.4643      0.00000
     50      45.8845      0.00000
     51      45.9182      0.00000
     52      46.2833      0.00000
     53      47.8358      0.00000
     54      52.8858      0.00000

 k-point    11 :       0.5000    0.3333    0.0000
  band No.  band energies     occupation 
      1     -19.7513      1.00000
      2     -19.7398      1.00000
      3     -19.6669      1.00000
      4     -19.6003      1.00000
      5     -19.5824      1.00000
      6     -19.5412      1.00000
      7     -19.5218      1.00000
      8     -19.4763      1.00000
      9     -19.3978      1.00000
     10     -19.3873      1.00000
     11      -4.8563      1.00000
     12      -2.5974      1.00000
     13       1.3328      1.00000
     14       2.3240      1.00000
     15       6.1664      0.00000
     16       7.8081      0.00000
     17      12.2314      0.00000
     18      12.8197      0.00000
     19      15.6438      0.00000
     20      16.8660      0.00000
     21      17.2500      0.00000
     22      18.9289      0.00000
     23      19.1358      0.00000
     24      21.5109      0.00000
     25      22.6116      0.00000
     26      22.8603      0.00000
     27      23.6736      0.00000
     28      24.6415      0.00000
     29      25.3847      0.00000
     30      27.8559      0.00000
     31      28.0592      0.00000
     32      29.0350      0.00000
     33      30.6885      0.00000
     34      32.6131      0.00000
     35      33.6376      0.00000
     36      34.1782      0.00000
     37      36.0945      0.00000
     38      36.5494      0.00000
     39      38.0955      0.00000
     40      38.7857      0.00000
     41      39.0582      0.00000
     42      40.3804      0.00000
     43      41.7102      0.00000
     44      42.2129      0.00000
     45      43.3616      0.00000
     46      45.2270      0.00000
     47      46.0242      0.00000
     48      46.9626      0.00000
     49      47.2467      0.00000
     50      48.7289      0.00000
     51      49.7230      0.00000
     52      51.8061      0.00000
     53      52.2527      0.00000
     54      53.1295      0.00000

 k-point    12 :      -0.3333    0.3333    0.0000
  band No.  band energies     occupation 
      1     -19.7599      1.00000
      2     -19.7427      1.00000
      3     -19.6508      1.00000
      4     -19.5781      1.00000
      5     -19.5719      1.00000
      6     -19.5580      1.00000
      7     -19.5379      1.00000
      8     -19.4925      1.00000
      9     -19.3944      1.00000
     10     -19.3793      1.00000
     11      -4.7190      1.00000
     12      -2.7457      1.00000
     13       0.6083      1.00000
     14       2.7814      1.00000
     15       6.5692      0.00000
     16      10.9506      0.00000
     17      11.5960      0.00000
     18      11.6251      0.00000
     19      12.3688      0.00000
     20      14.0889      0.00000
     21      18.8065      0.00000
     22      19.0545      0.00000
     23      21.0223      0.00000
     24      22.3359      0.00000
     25      23.1496      0.00000
     26      23.9972      0.00000
     27      24.0157      0.00000
     28      26.3273      0.00000
     29      27.0914      0.00000
     30      27.5367      0.00000
     31      27.5559      0.00000
     32      27.9448      0.00000
     33      30.8836      0.00000
     34      31.5335      0.00000
     35      31.6661      0.00000
     36      33.4231      0.00000
     37      33.4873      0.00000
     38      36.2426      0.00000
     39      38.3846      0.00000
     40      39.1823      0.00000
     41      39.2669      0.00000
     42      39.8714      0.00000
     43      40.1906      0.00000
     44      40.5500      0.00000
     45      45.8666      0.00000
     46      47.0459      0.00000
     47      47.7057      0.00000
     48      48.8069      0.00000
     49      48.9068      0.00000
     50      50.1131      0.00000
     51      50.3231      0.00000
     52      51.5390      0.00000
     53      52.4622      0.00000
     54      53.7935      0.00000

 k-point    13 :       0.5000    0.5000    0.0000
  band No.  band energies     occupation 
      1     -19.7413      1.00000
      2     -19.7413      1.00000
      3     -19.6536      1.00000
      4     -19.6536      1.00000
      5     -19.5508      1.00000
      6     -19.5508      1.00000
      7     -19.4913      1.00000
      8     -19.4913      1.00000
      9     -19.3949      1.00000
     10     -19.3949      1.00000
     11      -3.8074      1.00000
     12      -3.8074      1.00000
     13       2.0080      1.00000
     14       2.0080      1.00000
     15       5.8650      0.00000
     16       5.8650      0.00000
     17      14.7548      0.00000
     18      14.7548      0.00000
     19      16.8750      0.00000
     20      16.8750      0.00000
     21      18.0444      0.00000
     22      18.0444      0.00000
     23      18.9522      0.00000
     24      18.9522      0.00000
     25      24.2844      0.00000
     26      24.2844      0.00000
     27      24.3341      0.00000
     28      24.3341      0.00000
     29      24.6467      0.00000
     30      24.6467      0.00000
     31      25.3851      0.00000
     32      25.3851      0.00000
     33      34.1441      0.00000
     34      34.1441      0.00000
     35      35.1015      0.00000
     36      35.1015      0.00000
     37      37.1438      0.00000
     38      37.1442      0.00000
     39      38.7505      0.00000
     40      38.7505      0.00000
     41      39.9592      0.00000
     42      39.9615      0.00000
     43      41.2346      0.00000
     44      41.2354      0.00000
     45      42.7806      0.00000
     46      42.7836      0.00000
     47      44.5180      0.00000
     48      44.5266      0.00000
     49      45.4367      0.00000
     50      45.4609      0.00000
     51      52.6200      0.00000
     52      52.9274      0.00000
     53      53.8634      0.00000
     54      54.2233      0.00000

 k-point    14 :       0.5000    0.3333    0.1667
  band No.  band energies     occupation 
      1     -19.7470      1.00000
      2     -19.7439      1.00000
      3     -19.6663      1.00000
      4     -19.6109      1.00000
      5     -19.5751      1.00000
      6     -19.5585      1.00000
      7     -19.4979      1.00000
      8     -19.4793      1.00000
      9     -19.3953      1.00000
     10     -19.3940      1.00000
     11      -5.5960      1.00000
     12      -1.6591      1.00000
     13       1.3799      1.00000
     14       2.6467      1.00000
     15       7.9338      0.00000
     16       8.3729      0.00000
     17       9.4921      0.00000
     18      12.2851      0.00000
     19      14.4771      0.00000
     20      15.1505      0.00000
     21      17.6358      0.00000
     22      18.2858      0.00000
     23      19.1115      0.00000
     24      21.3965      0.00000
     25      21.5845      0.00000
     26      23.3845      0.00000
     27      24.8444      0.00000
     28      27.0760      0.00000
     29      27.3746      0.00000
     30      27.8708      0.00000
     31      28.5369      0.00000
     32      30.0005      0.00000
     33      30.7993      0.00000
     34      32.7355      0.00000
     35      33.4142      0.00000
     36      34.4607      0.00000
     37      35.2812      0.00000
     38      36.3403      0.00000
     39      36.3978      0.00000
     40      39.7319      0.00000
     41      39.9720      0.00000
     42      40.5199      0.00000
     43      41.3957      0.00000
     44      42.6467      0.00000
     45      45.2465      0.00000
     46      45.4973      0.00000
     47      46.0169      0.00000
     48      46.4584      0.00000
     49      47.4084      0.00000
     50      47.8726      0.00000
     51      48.7914      0.00000
     52      49.3098      0.00000
     53      50.7906      0.00000
     54      53.2155      0.00000

 k-point    15 :      -0.3333    0.3333    0.1667
  band No.  band energies     occupation 
      1     -19.7573      1.00000
      2     -19.7467      1.00000
      3     -19.6435      1.00000
      4     -19.5920      1.00000
      5     -19.5684      1.00000
      6     -19.5602      1.00000
      7     -19.5255      1.00000
      8     -19.4978      1.00000
      9     -19.3914      1.00000
     10     -19.3815      1.00000
     11      -4.7137      1.00000
     12      -2.7781      1.00000
     13       0.9232      1.00000
     14       2.2035      1.00000
     15       8.1942      0.00000
     16       8.7549      0.00000
     17      11.2588      0.00000
     18      11.2748      0.00000
     19      13.2571      0.00000
[...]
     48      44.5225      0.00000
     49      45.4374      0.00000
     50      45.4714      0.00000
     51      52.7127      0.00000
     52      52.9421      0.00000
     53      53.5370      0.00000
     54      54.4703      0.00000

 k-point    14 :       0.5000    0.3333    0.1667
  band No.  band energies     occupation 
      1     -19.7470      1.00000
      2     -19.7439      1.00000
      3     -19.6663      1.00000
      4     -19.6109      1.00000
      5     -19.5750      1.00000
      6     -19.5585      1.00000
      7     -19.4979      1.00000
      8     -19.4793      1.00000
      9     -19.3953      1.00000
     10     -19.3940      1.00000
     11      -5.5960      1.00000
     12      -1.6591      1.00000
     13       1.3799      1.00000
     14       2.6467      1.00000
     15       7.9338      0.00000
     16       8.3729      0.00000
     17       9.4921      0.00000
     18      12.2851      0.00000
     19      14.4771      0.00000
     20      15.1505      0.00000
     21      17.6358      0.00000
     22      18.2857      0.00000
     23      19.1114      0.00000
     24      21.3965      0.00000
     25      21.5845      0.00000
     26      23.3845      0.00000
     27      24.8444      0.00000
     28      27.0760      0.00000
     29      27.3746      0.00000
     30      27.8708      0.00000
     31      28.5369      0.00000
     32      30.0005      0.00000
     33      30.7993      0.00000
     34      32.7355      0.00000
     35      33.4142      0.00000
     36      34.4607      0.00000
     37      35.2812      0.00000
     38      36.3403      0.00000
     39      36.3978      0.00000
     40      39.7320      0.00000
     41      39.9739      0.00000
     42      40.5221      0.00000
     43      41.3962      0.00000
     44      42.6434      0.00000
     45      45.2522      0.00000
     46      45.4593      0.00000
     47      45.9138      0.00000
     48      46.4214      0.00000
     49      47.4079      0.00000
     50      47.6962      0.00000
     51      48.7955      0.00000
     52      49.2786      0.00000
     53      49.7296      0.00000
     54      53.1111      0.00000

 k-point    15 :      -0.3333    0.3333    0.1667
  band No.  band energies     occupation 
      1     -19.7573      1.00000
      2     -19.7467      1.00000
      3     -19.6435      1.00000
      4     -19.5920      1.00000
      5     -19.5684      1.00000
      6     -19.5602      1.00000
      7     -19.5255      1.00000
      8     -19.4978      1.00000
      9     -19.3914      1.00000
     10     -19.3815      1.00000
     11      -4.7137      1.00000
     12      -2.7781      1.00000
     13       0.9232      1.00000
     14       2.2035      1.00000
     15       8.1942      0.00000
     16       8.7549      0.00000
     17      11.2588      0.00000
     18      11.2748      0.00000
     19      13.2571      0.00000
     20      17.0131      0.00000
     21      17.1535      0.00000
     22      17.7455      0.00000
     23      21.5425      0.00000
     24      22.0963      0.00000
     25      22.8982      0.00000
     26      23.7805      0.00000
     27      24.2214      0.00000
     28      26.6113      0.00000
     29      27.0775      0.00000
     30      27.5837      0.00000
     31      28.0473      0.00000
     32      29.5018      0.00000
     33      30.0947      0.00000
     34      30.7823      0.00000
     35      32.1547      0.00000
     36      33.3378      0.00000
     37      34.9361      0.00000
     38      35.2286      0.00000
     39      35.4924      0.00000
     40      35.9537      0.00000
     41      40.6179      0.00000
     42      41.2510      0.00000
     43      44.1173      0.00000
     44      44.1391      0.00000
     45      44.9459      0.00000
     46      45.2522      0.00000
     47      46.5926      0.00000
     48      47.7304      0.00000
     49      47.8418      0.00000
     50      48.5155      0.00000
     51      48.6884      0.00000
     52      51.5562      0.00000
     53      52.2242      0.00000
     54      54.4419      0.00000

 k-point    16 :      -0.3333    0.5000    0.1667
  band No.  band energies     occupation 
      1     -19.7526      1.00000
      2     -19.7526      1.00000
      3     -19.6228      1.00000
      4     -19.6228      1.00000
      5     -19.5546      1.00000
      6     -19.5546      1.00000
      7     -19.5168      1.00000
      8     -19.5168      1.00000
      9     -19.3850      1.00000
     10     -19.3850      1.00000
     11      -3.7321      1.00000
     12      -3.7321      1.00000
     13       1.3390      1.00000
     14       1.3390      1.00000
     15       7.8413      0.00000
     16       7.8413      0.00000
     17      11.7623      0.00000
     18      11.7623      0.00000
     19      16.2779      0.00000
     20      16.2779      0.00000
     21      18.1698      0.00000
     22      18.1698      0.00000
     23      22.0335      0.00000
     24      22.0335      0.00000
     25      22.3713      0.00000
     26      22.3713      0.00000
     27      23.7813      0.00000
     28      23.7813      0.00000
     29      27.5989      0.00000
     30      27.5989      0.00000
     31      28.7794      0.00000
     32      28.7794      0.00000
     33      29.4033      0.00000
     34      29.4034      0.00000
     35      32.9021      0.00000
     36      32.9021      0.00000
     37      34.9584      0.00000
     38      34.9585      0.00000
     39      38.8149      0.00000
     40      38.8154      0.00000
     41      40.3846      0.00000
     42      40.3877      0.00000
     43      41.9804      0.00000
     44      41.9951      0.00000
     45      44.9792      0.00000
     46      45.0102      0.00000
     47      47.1314      0.00000
     48      47.2457      0.00000
     49      48.2093      0.00000
     50      48.3907      0.00000
     51      52.7672      0.00000
     52      53.1156      0.00000
     53      53.4656      0.00000
     54      53.8452      0.00000


--------------------------------------------------------------------------------------------------------


 soft charge-density along one line, spin component           1
         0         1         2         3         4         5         6         7         8         9
 total charge-density along one line
 
 soft charge-density along one line, spin component           2
         0         1         2         3         4         5         6         7         8         9
 total charge-density along one line
 
 pseudopotential strength for first ion, spin component:           1
-22.146  -0.000  -0.000  -0.000  -0.000   4.322   0.000   0.000
 -0.000 -22.146   0.000  -0.000  -0.000   0.000   4.322  -0.000
 -0.000   0.000 -22.145   0.000  -0.000   0.000  -0.000   4.322
 -0.000  -0.000   0.000 -22.146   0.000   0.000   0.000  -0.000
 -0.000  -0.000  -0.000   0.000 -22.145   0.000   0.000   0.000
  4.322   0.000   0.000   0.000   0.000   1.969   0.000   0.000
  0.000   4.322  -0.000   0.000   0.000   0.000   1.969  -0.000
  0.000  -0.000   4.322  -0.000   0.000   0.000  -0.000   1.968
  0.000   0.000  -0.000   4.322  -0.000   0.000   0.000  -0.000
  0.000   0.000   0.000  -0.000   4.322   0.000   0.000  -0.000
  0.000   0.000   0.000   0.000   0.000  -0.000  -0.000  -0.000
  0.000   0.000   0.000   0.000   0.000  -0.000  -0.000  -0.000
  0.000   0.000   0.000  -0.002   0.000  -0.000  -0.000  -0.000
 -0.002   0.000  -0.000   0.000  -0.000   0.001  -0.000   0.000
  0.000  -0.002   0.000   0.000  -0.000  -0.000   0.001  -0.000
  0.000   0.000   0.000  -0.002   0.000  -0.000  -0.000  -0.000
 -0.002   0.000  -0.000   0.000  -0.000   0.001  -0.000   0.000
  0.000  -0.002   0.000   0.000  -0.000  -0.000   0.001  -0.000
 pseudopotential strength for first ion, spin component:           2
-22.146  -0.000  -0.000  -0.000  -0.000   4.322   0.000   0.000
 -0.000 -22.146   0.000  -0.000  -0.000   0.000   4.322  -0.000
 -0.000   0.000 -22.145   0.000  -0.000   0.000  -0.000   4.322
 -0.000  -0.000   0.000 -22.146   0.000   0.000   0.000  -0.000
 -0.000  -0.000  -0.000   0.000 -22.145   0.000   0.000   0.000
  4.322   0.000   0.000   0.000   0.000   1.969   0.000   0.000
  0.000   4.322  -0.000   0.000   0.000   0.000   1.969  -0.000
  0.000  -0.000   4.322  -0.000   0.000   0.000  -0.000   1.968
  0.000   0.000  -0.000   4.322  -0.000   0.000   0.000  -0.000
  0.000   0.000   0.000  -0.000   4.322   0.000   0.000  -0.000
  0.000   0.000   0.000   0.000   0.000  -0.000  -0.000  -0.000
  0.000   0.000   0.000   0.000   0.000  -0.000  -0.000  -0.000
  0.000   0.000   0.000  -0.002   0.000  -0.000  -0.000  -0.000
 -0.002   0.000  -0.000   0.000  -0.000   0.001  -0.000   0.000
  0.000  -0.002   0.000   0.000  -0.000  -0.000   0.001  -0.000
  0.000   0.000   0.000  -0.002   0.000  -0.000  -0.000  -0.000
 -0.002   0.000  -0.000   0.000  -0.000   0.001  -0.000   0.000
  0.000  -0.002   0.000   0.000  -0.000  -0.000   0.001  -0.000
 total augmentation occupancy for first ion, spin component:           1
  2.007   0.000  -0.000   0.000  -0.000   0.019   0.000  -0.000   0.000   0.000  -0.000  -0.000   0.000   0.056   0.000  -0.000
  0.000   2.007   0.000   0.000   0.000   0.000   0.019  -0.000   0.000  -0.000   0.000  -0.000   0.000   0.000   0.056  -0.000
  0.000  -0.000   2.004   0.000   0.000  -0.000   0.000   0.010   0.000   0.000   0.000   0.000   0.000  -0.000   0.000   0.000
  0.000   0.000   0.000   2.007   0.000   0.000   0.000   0.000   0.019  -0.000   0.000   0.000   0.056   0.000  -0.000  -0.017
  0.000  -0.000   0.000   0.000   2.004  -0.000  -0.000   0.000   0.000   0.010   0.000   0.000   0.000   0.000  -0.000  -0.000
  0.019   0.000  -0.000   0.000   0.000   0.044   0.000   0.000   0.000   0.000   0.000   0.000  -0.000   0.226   0.000  -0.000
  0.000   0.019  -0.000   0.000  -0.000   0.000   0.044  -0.000   0.000  -0.000   0.000  -0.000   0.000   0.000   0.226   0.000
  0.000   0.000   0.010   0.000   0.000   0.000  -0.000   0.013   0.000   0.000  -0.000  -0.000   0.000  -0.000   0.000   0.000
  0.000   0.000   0.000   0.019   0.000   0.000  -0.000   0.000   0.044   0.000  -0.000  -0.000   0.226   0.000   0.000  -0.038
  0.000  -0.000   0.000   0.000   0.010  -0.000  -0.000   0.000   0.000   0.013   0.000   0.000   0.000  -0.000  -0.000  -0.000
 -0.000  -0.000   0.000   0.000   0.000   0.000   0.000  -0.000  -0.000   0.000   3.561  -1.067  -0.000  -0.000   0.000  -0.000
 -0.000  -0.000   0.000   0.000   0.000   0.000  -0.000   0.000   0.000   0.000  -1.067   0.480  -0.000  -0.000   0.000  -0.000
  0.000   0.000   0.000   0.056   0.000   0.000   0.000   0.000   0.226   0.000  -0.000   0.000   2.060  -0.000   0.000  -0.343
  0.056   0.000  -0.000   0.000  -0.000   0.226   0.000  -0.000   0.000  -0.000  -0.000   0.000  -0.000   2.060   0.000   0.000
  0.000   0.056   0.000   0.000  -0.000  -0.000   0.226   0.000   0.000  -0.000  -0.000   0.000   0.000   0.000   2.060   0.000
 -0.000  -0.000   0.000  -0.017  -0.000   0.000  -0.000  -0.000  -0.038  -0.000   0.000   0.000  -0.343   0.000  -0.000   0.065
 -0.017  -0.000  -0.000  -0.000  -0.000  -0.038   0.000   0.000   0.000  -0.000  -0.000  -0.000   0.000  -0.343  -0.000   0.000
 -0.000  -0.017   0.000  -0.000   0.000   0.000  -0.038   0.000   0.000   0.000  -0.000   0.000  -0.000  -0.000  -0.343  -0.000
 total augmentation occupancy for first ion, spin component:           2
 -0.000   0.000  -0.000  -0.000  -0.000  -0.000   0.000  -0.000   0.000  -0.000   0.000  -0.000  -0.000  -0.000  -0.000  -0.000
  0.000  -0.000  -0.000   0.000  -0.000  -0.000  -0.000   0.000   0.000  -0.000   0.000   0.000  -0.000   0.000  -0.000   0.000
 -0.000  -0.000  -0.000  -0.000   0.000   0.000  -0.000  -0.000  -0.000   0.000   0.000   0.000  -0.000  -0.000  -0.000   0.000
 -0.000   0.000   0.000  -0.000   0.000  -0.000   0.000  -0.000  -0.000   0.000  -0.000   0.000  -0.000   0.000  -0.000   0.000
  0.000  -0.000   0.000   0.000  -0.000  -0.000  -0.000   0.000   0.000  -0.000   0.000  -0.000  -0.000  -0.000   0.000   0.000
 -0.000  -0.000  -0.000  -0.000   0.000  -0.000   0.000   0.000  -0.000  -0.000   0.000   0.000  -0.000  -0.000  -0.000   0.000
  0.000  -0.000   0.000   0.000  -0.000   0.000  -0.000   0.000   0.000  -0.000   0.000   0.000   0.000   0.000  -0.000  -0.000
  0.000   0.000  -0.000   0.000   0.000   0.000   0.000  -0.000   0.000   0.000   0.000   0.000   0.000   0.000   0.000   0.000
  0.000   0.000  -0.000  -0.000   0.000  -0.000   0.000  -0.000  -0.000   0.000   0.000  -0.000  -0.000  -0.000   0.000   0.000
 -0.000  -0.000   0.000   0.000  -0.000   0.000  -0.000   0.000  -0.000  -0.000  -0.000   0.000  -0.000   0.000   0.000   0.000
  0.000   0.000   0.000  -0.000  -0.000   0.000   0.000   0.000   0.000   0.000   0.000  -0.000  -0.000  -0.000  -0.000  -0.000
 -0.000   0.000   0.000   0.000  -0.000   0.000   0.000   0.000  -0.000   0.000  -0.000   0.000  -0.000  -0.000  -0.000   0.000
 -0.000  -0.000  -0.000  -0.000  -0.000  -0.000   0.000  -0.000  -0.000  -0.000  -0.000  -0.000  -0.000   0.000  -0.000   0.000
 -0.000   0.000   0.000   0.000  -0.000  -0.000   0.000   0.000  -0.000   0.000  -0.000  -0.000   0.000  -0.000   0.000  -0.000
 -0.000  -0.000  -0.000  -0.000   0.000  -0.000  -0.000  -0.000   0.000   0.000  -0.000  -0.000  -0.000   0.000  -0.000   0.000
 -0.000   0.000  -0.000   0.000   0.000   0.000  -0.000   0.000   0.000   0.000  -0.000   0.000   0.000  -0.000   0.000  -0.000
  0.000  -0.000  -0.000   0.000   0.000   0.000  -0.000  -0.000  -0.000  -0.000   0.000  -0.000   0.000   0.000  -0.000   0.000
 -0.000   0.000  -0.000   0.000   0.000  -0.000   0.000   0.000  -0.000  -0.000   0.000   0.000  -0.000  -0.000   0.000  -0.000


------------------------ aborting loop because EDIFF is reached ----------------------------------------


 


 total charge     
 
# of ion       s       p       d       tot
------------------------------------------
    1        1.122   1.287  10.026  12.435
    2        1.122   1.287  10.026  12.435
--------------------------------------------------
tot          2.244   2.575  20.052  24.871
 


 magnetization (x)
 
# of ion       s       p       d       tot
------------------------------------------
    1       -0.000   0.000  -0.000  -0.000
    2        0.000   0.000  -0.000   0.000
--------------------------------------------------
tot          0.000   0.000  -0.000   0.000
 
    FORLOC:  cpu time    0.0002: real time    0.0002
    FORNL :  cpu time    0.0126: real time    0.0127
    STRESS:  cpu time    0.0314: real time    0.0337
    FORCOR:  cpu time    0.0109: real time    0.0110
    OFIELD:  cpu time    0.0001: real time    0.0001

  FORCE on cell =-STRESS in cart. coord.  units (eV):
  Direction    XX          YY          ZZ          XY          YZ          ZX
  --------------------------------------------------------------------------------------
  Alpha Z   131.13230   131.13230   131.13230
  Ewald    -899.66750  -899.66750  -899.66750     0.00000    -0.00000     0.00000
  Hartree   502.62485   502.62485   502.62485     0.00000     0.00000     0.00000
  E(xc)    -164.84339  -164.84339  -164.84339     0.00002     0.00002     0.00002
  Local     -23.72098   -23.72098   -23.72098     0.00074     0.00074     0.00074
  n-local    59.43587    60.26736    54.11457     2.56682    -0.97793     0.57846
  augment   252.19091   252.19091   252.19091    -0.00060    -0.00060    -0.00060
  Kinetic   147.99206   146.80997   141.88233     4.30861    -1.34308     1.18896
  Fock        0.00000     0.00000     0.00000     0.00000     0.00000     0.00000
  -------------------------------------------------------------------------------------
  Total       1.21691     1.21691     1.21691     0.00000     0.00000    -0.00000
  in kB      43.63247    43.63247    43.63247     0.00000     0.00000    -0.00000
  external pressure =       43.63 kB  Pullay stress =        0.00 kB


 VOLUME and BASIS-vectors are now :
 -----------------------------------------------------------------------------
  energy-cutoff  :      450.00
  volume of cell :       44.68
      direct lattice vectors                 reciprocal lattice vectors
     0.000000000  2.816500000  2.816500000    -0.177525297  0.177525297  0.177525297
     2.816500000  0.000000000  2.816500000     0.177525297 -0.177525297  0.177525297
     2.816500000  2.816500000  0.000000000     0.177525297  0.177525297 -0.177525297

  length of vectors
     3.983132498  3.983132498  3.983132498     0.307482835  0.307482835  0.307482835


 FORCES acting on ions:
    Electron-Ion                     Ewald-Force                    Non-Local-Force
 -----------------------------------------------------------------------------------------------
   -.244E-05 -.244E-05 -.133E-05   0.347E-13 0.213E-13 0.640E-13   -.763E-16 -.694E-16 -.416E-16
   0.244E-05 0.244E-05 0.133E-05   -.341E-13 -.194E-13 -.605E-13   0.416E-16 0.763E-16 0.520E-16
 -----------------------------------------------------------------------------------------------
   -.143E-11 0.547E-12 0.292E-11   0.562E-15 0.183E-14 0.346E-14   -.347E-16 0.694E-17 0.104E-16
 
 
 POSITION                                       TOTAL-FORCE (eV/Angst)
 -----------------------------------------------------------------------------------
      0.00000      0.00000      0.00000         0.000000      0.000000     -0.000000
      1.40825      1.40825      1.40825        -0.000000     -0.000000      0.000000
 -----------------------------------------------------------------------------------
    total drift:                               -0.000000      0.000000      0.000000


--------------------------------------------------------------------------------------------------------



  FREE ENERGIE OF THE ION-ELECTRON SYSTEM (eV)
  ---------------------------------------------------
  free  energy   TOTEN  =        -8.94932018 eV

  energy  without entropy=       -8.94928239  energy(sigma->0) =       -8.94930128
 


--------------------------------------------------------------------------------------------------------


    POTLOK:  cpu time    0.0164: real time    0.0167


--------------------------------------------------------------------------------------------------------


 writing wavefunctions
     LOOP+:  cpu time    2.0467: real time    2.9692
    4ORBIT:  cpu time    0.0000: real time    0.0000
 


 total charge     
 
# of ion       s       p       d       tot
------------------------------------------
    1        1.122   1.287  10.026  12.435
    2        1.122   1.287  10.026  12.435
--------------------------------------------------
tot          2.244   2.575  20.052  24.871
 


 magnetization (x)
 
# of ion       s       p       d       tot
------------------------------------------
    1       -0.000   0.000  -0.000  -0.000
    2        0.000   0.000  -0.000   0.000
--------------------------------------------------
tot          0.000   0.000  -0.000   0.000
 

 total amount of memory used by VASP MPI-rank0    42603. kBytes
=======================================================================

   base      :      30000. kBytes
   nonl-proj :        784. kBytes
   fftplans  :        600. kBytes
   grid      :       1402. kBytes
   one-center:         31. kBytes
   wavefun   :       9786. kBytes
 
  
  
 General timing and accounting informations for this job:
 ========================================================
  
                  Total CPU time used (sec):        4.137
                            User time (sec):        3.329
                          System time (sec):        0.809
                         Elapsed time (sec):        7.339
  
                   Maximum memory used (kb):      184212.
                   Average memory used (kb):           0.
  
                          Minor page faults:        21949
                          Major page faults:           17
                 Voluntary context switches:         3593
