PROCAR lm decomposed
# of k-points:   16         # of bands:   54         # of ions:    2

 k-point     1 :    0.00000000 0.00000000 0.00000000     weight = 0.00462963

band     1 # energy  -19.70611272 # occ.  1.00000000
 
ion      s     py     pz     px    dxy    dyz    dz2    dxz  x2-y2    tot
    1  0.000  0.000  0.000  0.000  0.156  0.179  0.000  0.162  0.000  0.497
    2  0.000  0.000  0.000  0.000  0.156  0.179  0.000  0.162  0.000  0.497
tot    0.000  0.000  0.000  0.000  0.311  0.358  0.000  0.323  0.000  0.994
 
band     2 # energy  -19.70611089 # occ.  1.00000000
 
ion      s     py     pz     px    dxy    dyz    dz2    dxz  x2-y2    tot
    1  0.000  0.000  0.000  0.000  0.290  0.170  0.000  0.037  0.000  0.497
    2  0.000  0.000  0.000  0.000  0.290  0.170  0.000  0.037  0.000  0.497
tot    0.000  0.000  0.001  0.000  0.579  0.339  0.000  0.075  0.000  0.994
 
band     3 # energy  -19.70611076 # occ.  1.00000000
 
ion      s     py     pz     px    dxy    dyz    dz2    dxz  x2-y2    tot
    1  0.000  0.000  0.000  0.000  0.051  0.148  0.000  0.298  0.000  0.497
    2  0.000  0.000  0.000  0.000  0.051  0.148  0.000  0.298  0.000  0.497
tot    0.000  0.001  0.000  0.000  0.102  0.295  0.000  0.595  0.000  0.994
 
band     4 # energy  -19.66987345 # occ.  1.00000000
 
ion      s     py     pz     px    dxy    dyz    dz2    dxz  x2-y2    tot
    1  0.000  0.000  0.000  0.000  0.000  0.000  0.364  0.000  0.132  0.496
    2  0.000  0.000  0.000  0.000  0.000  0.000  0.364  0.000  0.132  0.496
tot    0.000  0.000  0.000  0.000  0.000  0.000  0.727  0.000  0.265  0.992
 
band     5 # energy  -19.66987325 # occ.  1.00000000
 
ion      s     py     pz     px    dxy    dyz    dz2    dxz  x2-y2    tot
    1  0.000  0.000  0.000  0.000  0.000  0.000  0.132  0.000  0.364  0.496
    2  0.000  0.000  0.000  0.000  0.000  0.000  0.132  0.000  0.364  0.496
tot    0.000  0.000  0.000  0.000  0.000  0.000  0.265  0.000  0.727  0.992
 
band     6 # energy  -19.45144772 # occ.  1.00000000
 
ion      s     py     pz     px    dxy    dyz    dz2    dxz  x2-y2    tot
    1  0.000  0.000  0.000  0.000  0.181  0.156  0.000  0.161  0.000  0.498
    2  0.000  0.000  0.000  0.000  0.181  0.156  0.000  0.161  0.000  0.498
tot    0.000  0.000  0.000  0.000  0.362  0.312  0.000  0.322  0.000  0.996
 
band     7 # energy  -19.45144595 # occ.  1.00000000
 
ion      s     py     pz     px    dxy    dyz    dz2    dxz  x2-y2    tot
    1  0.000  0.000  0.000  0.000  0.043  0.145  0.000  0.309  0.000  0.498
    2  0.000  0.000  0.000  0.000  0.043  0.145  0.000  0.309  0.000  0.498
tot    0.000  0.000  0.000  0.000  0.087  0.290  0.000  0.619  0.000  0.996
 
band     8 # energy  -19.45144588 # occ.  1.00000000
 
ion      s     py     pz     px    dxy    dyz    dz2    dxz  x2-y2    tot
    1  0.000  0.000  0.000  0.000  0.273  0.197  0.000  0.027  0.000  0.498
    2  0.000  0.000  0.000  0.000  0.273  0.197  0.000  0.027  0.000  0.498
tot    0.000  0.000  0.000  0.000  0.547  0.394  0.000  0.055  0.000  0.996
 
band     9 # energy  -19.43729118 # occ.  1.00000000
 
ion      s     py     pz     px    dxy    dyz    dz2    dxz  x2-y2    tot
    1  0.000  0.000  0.000  0.000  0.000  0.000  0.018  0.000  0.481  0.499
    2  0.000  0.000  0.000  0.000  0.000  0.000  0.018  0.000  0.481  0.499
tot    0.000  0.000  0.000  0.000  0.000  0.000  0.035  0.000  0.963  0.998
 
band    10 # energy  -19.43729107 # occ.  1.00000000
 
ion      s     py     pz     px    dxy    dyz    dz2    dxz  x2-y2    tot
    1  0.000  0.000  0.000  0.000  0.000  0.000  0.481  0.000  0.018  0.499
    2  0.000  0.000  0.000  0.000  0.000  0.000  0.481  0.000  0.018  0.499
tot    0.000  0.000  0.000  0.000  0.000  0.000  0.963  0.000  0.035  0.998
 
band    11 # energy   -7.74477737 # occ.  1.00000000
 
ion      s     py     pz     px    dxy    dyz    dz2    dxz  x2-y2    tot
    1  0.312  0.000  0.000  0.000  0.000  0.000  0.000  0.000  0.000  0.312
    2  0.312  0.000  0.000  0.000  0.000  0.000  0.000  0.000  0.000  0.312
tot    0.624  0.000  0.000  0.000  0.000  0.000  0.000  0.000  0.000  0.624
 
band    12 # energy    5.12895306 # occ.  0.99254810
 
ion      s     py     pz     px    dxy    dyz    dz2    dxz  x2-y2    tot
    1  0.000  0.044  0.013  0.253  0.002  0.031  0.000  0.005  0.000  0.349
    2  0.000  0.044  0.013  0.253  0.002  0.031  0.000  0.005  0.000  0.349
tot    0.000  0.088  0.027  0.505  0.003  0.062  0.000  0.011  0.000  0.697
 
band    13 # energy    5.12895418 # occ.  0.99252210
 
ion      s     py     pz     px    dxy    dyz    dz2    dxz  x2-y2    tot
    1  0.000  0.151  0.154  0.005  0.019  0.001  0.000  0.019  0.000  0.349
    2  0.000  0.151  0.154  0.005  0.019  0.001  0.000  0.019  0.000  0.349
tot    0.000  0.303  0.307  0.010  0.038  0.001  0.000  0.037  0.000  0.697
 
band    14 # energy    5.12895645 # occ.  0.99249435
 
ion      s     py     pz     px    dxy    dyz    dz2    dxz  x2-y2    tot
    1  0.000  0.115  0.143  0.052  0.018  0.006  0.000  0.014  0.000  0.349
    2  0.000  0.115  0.143  0.052  0.018  0.006  0.000  0.014  0.000  0.349
tot    0.000  0.229  0.286  0.105  0.035  0.013  0.000  0.028  0.000  0.697
 
band    15 # energy    5.28555333 # occ.  0.02216207
 
ion      s     py     pz     px    dxy    dyz    dz2    dxz  x2-y2    tot
    1  0.427  0.000  0.000  0.000  0.000  0.000  0.000  0.000  0.000  0.427
    2  0.427  0.000  0.000  0.000  0.000  0.000  0.000  0.000  0.000  0.427
tot    0.855  0.000  0.000  0.000  0.000  0.000  0.000  0.000  0.000  0.855
 
band    16 # energy    7.68583546 # occ.  0.00000000
 
ion      s     py     pz     px    dxy    dyz    dz2    dxz  x2-y2    tot
    1  0.000  0.136  0.049  0.026  0.011  0.006  0.000  0.031  0.000  0.258
    2  0.000  0.136  0.049  0.026  0.011  0.006  0.000  0.031  0.000  0.258
tot    0.000  0.271  0.097  0.051  0.022  0.012  0.000  0.062  0.000  0.516
 
band    17 # energy    7.68583572 # occ.  0.00000000
 
ion      s     py     pz     px    dxy    dyz    dz2    dxz  x2-y2    tot
    1  0.000  0.058  0.029  0.123  0.007  0.028  0.000  0.013  0.000  0.258
    2  0.000  0.058  0.029  0.123  0.007  0.028  0.000  0.013  0.000  0.258
tot    0.000  0.117  0.057  0.246  0.013  0.056  0.000  0.027  0.000  0.516
 
band    18 # energy    7.68583730 # occ.  0.00000000
 
ion      s     py     pz     px    dxy    dyz    dz2    dxz  x2-y2    tot
    1  0.000  0.016  0.133  0.061  0.030  0.014  0.000  0.004  0.000  0.258
    2  0.000  0.016  0.133  0.061  0.030  0.014  0.000  0.004  0.000  0.258
tot    0.000  0.032  0.265  0.123  0.061  0.028  0.000  0.007  0.000  0.516
 
band    19 # energy   11.59017460 # occ.  0.00000000
 
ion      s     py     pz     px    dxy    dyz    dz2    dxz  x2-y2    tot
    1  0.097  0.000  0.000  0.000  0.000  0.000  0.000  0.000  0.000  0.097
    2  0.097  0.000  0.000  0.000  0.000  0.000  0.000  0.000  0.000  0.097
tot    0.195  0.000  0.000  0.000  0.000  0.000  0.000  0.000  0.000  0.195
 
band    20 # energy   14.64381980 # occ.  0.00000000
 
ion      s     py     pz     px    dxy    dyz    dz2    dxz  x2-y2    tot
    1  0.000  0.000  0.000  0.000  0.000  0.000  0.055  0.000  0.171  0.226
    2  0.000  0.000  0.000  0.000  0.000  0.000  0.055  0.000  0.171  0.226
tot    0.000  0.000  0.000  0.000  0.000  0.000  0.110  0.000  0.341  0.451
 
band    21 # energy   14.64381992 # occ.  0.00000000
 
ion      s     py     pz     px    dxy    dyz    dz2    dxz  x2-y2    tot
    1  0.000  0.000  0.000  0.000  0.000  0.000  0.171  0.000  0.055  0.226
    2  0.000  0.000  0.000  0.000  0.000  0.000  0.171  0.000  0.055  0.226
tot    0.000  0.000  0.000  0.000  0.000  0.000  0.341  0.000  0.110  0.451
 
band    22 # energy   15.95340137 # occ.  0.00000000
 
ion      s     py     pz     px    dxy    dyz    dz2    dxz  x2-y2    tot
    1  0.000  0.008  0.002  0.019  0.003  0.029  0.000  0.012  0.000  0.074
    2  0.000  0.008  0.002  0.019  0.003  0.029  0.000  0.012  0.000  0.074
tot    0.000  0.016  0.004  0.037  0.007  0.058  0.000  0.025  0.000  0.147
 
band    23 # energy   15.95341395 # occ.  0.00000000
 
ion      s     py     pz     px    dxy    dyz    dz2    dxz  x2-y2    tot
    1  0.000  0.003  0.023  0.002  0.036  0.004  0.000  0.005  0.000  0.074
    2  0.000  0.003  0.023  0.002  0.036  0.004  0.000  0.005  0.000  0.074
tot    0.000  0.007  0.046  0.005  0.072  0.008  0.000  0.010  0.000  0.147
 
band    24 # energy   15.95341532 # occ.  0.00000000
 
ion      s     py     pz     px    dxy    dyz    dz2    dxz  x2-y2    tot
    1  0.000  0.017  0.004  0.008  0.006  0.012  0.000  0.027  0.000  0.074
    2  0.000  0.017  0.004  0.008  0.006  0.012  0.000  0.027  0.000  0.074
tot    0.000  0.035  0.007  0.015  0.011  0.024  0.000  0.055  0.000  0.147
 
band    25 # energy   19.02743566 # occ.  0.00000000
 
ion      s     py     pz     px    dxy    dyz    dz2    dxz  x2-y2    tot
    1  0.027  0.000  0.000  0.000  0.000  0.000  0.000  0.000  0.000  0.027
    2  0.027  0.000  0.000  0.000  0.000  0.000  0.000  0.000  0.000  0.027
tot    0.055  0.000  0.000  0.000  0.000  0.000  0.000  0.000  0.000  0.055
 
band    26 # energy   30.61148016 # occ.  0.00000000
 
ion      s     py     pz     px    dxy    dyz    dz2    dxz  x2-y2    tot
    1  0.000  0.133  0.089  0.004  0.018  0.001  0.000  0.027  0.000  0.273
    2  0.000  0.133  0.089  0.004  0.018  0.001  0.000  0.027  0.000  0.273
tot    0.000  0.266  0.179  0.008  0.037  0.002  0.000  0.055  0.000  0.546
 
band    27 # energy   30.61148393 # occ.  0.00000000
 
ion      s     py     pz     px    dxy    dyz    dz2    dxz  x2-y2    tot
    1  0.000  0.040  0.030  0.156  0.006  0.032  0.000  0.008  0.000  0.273
    2  0.000  0.040  0.030  0.156  0.006  0.032  0.000  0.008  0.000  0.273
tot    0.000  0.081  0.059  0.313  0.012  0.064  0.000  0.017  0.000  0.546
 
band    28 # energy   30.61149039 # occ.  0.00000000
 
ion      s     py     pz     px    dxy    dyz    dz2    dxz  x2-y2    tot
    1  0.000  0.053  0.107  0.066  0.022  0.014  0.000  0.011  0.000  0.273
    2  0.000  0.053  0.107  0.066  0.022  0.014  0.000  0.011  0.000  0.273
tot    0.000  0.106  0.215  0.132  0.044  0.027  0.000  0.022  0.000  0.546
 
band    29 # energy   31.26297387 # occ.  0.00000000
 
ion      s     py     pz     px    dxy    dyz    dz2    dxz  x2-y2    tot
    1  0.000  0.000  0.000  0.000  0.000  0.000  0.000  0.000  0.000  0.000
    2  0.000  0.000  0.000  0.000  0.000  0.000  0.000  0.000  0.000  0.000
tot    0.000  0.000  0.000  0.000  0.000  0.000  0.000  0.000  0.000  0.000
 
band    30 # energy   31.26299757 # occ.  0.00000000
 
ion      s     py     pz     px    dxy    dyz    dz2    dxz  x2-y2    tot
    1  0.000  0.000  0.000  0.000  0.000  0.000  0.000  0.000  0.000  0.000
    2  0.000  0.000  0.000  0.000  0.000  0.000  0.000  0.000  0.000  0.000
tot    0.000  0.000  0.000  0.000  0.000  0.000  0.000  0.000  0.000  0.000
 
band    31 # energy   31.26300654 # occ.  0.00000000
 
ion      s     py     pz     px    dxy    dyz    dz2    dxz  x2-y2    tot
    1  0.000  0.000  0.000  0.000  0.000  0.000  0.000  0.000  0.000  0.000
    2  0.000  0.000  0.000  0.000  0.000  0.000  0.000  0.000  0.000  0.000
tot    0.000  0.000  0.000  0.000  0.000  0.000  0.000  0.000  0.000  0.000
 
band    32 # energy   31.83232296 # occ.  0.00000000
 
ion      s     py     pz     px    dxy    dyz    dz2    dxz  x2-y2    tot
    1  0.000  0.002  0.002  0.003  0.108  0.228  0.000  0.109  0.000  0.453
    2  0.000  0.002  0.002  0.003  0.108  0.228  0.000  0.109  0.000  0.453
tot    0.000  0.003  0.003  0.007  0.217  0.457  0.000  0.219  0.000  0.905
 
band    33 # energy   31.83232459 # occ.  0.00000000
 
ion      s     py     pz     px    dxy    dyz    dz2    dxz  x2-y2    tot
    1  0.000  0.001  0.003  0.003  0.208  0.169  0.000  0.070  0.000  0.453
    2  0.000  0.001  0.003  0.003  0.207  0.169  0.000  0.070  0.000  0.453
tot    0.000  0.002  0.006  0.005  0.415  0.337  0.000  0.140  0.000  0.905
 
band    34 # energy   31.83232803 # occ.  0.00000000
 
ion      s     py     pz     px    dxy    dyz    dz2    dxz  x2-y2    tot
    1  0.000  0.004  0.002  0.001  0.130  0.049  0.000  0.267  0.000  0.453
    2  0.000  0.004  0.002  0.001  0.130  0.049  0.000  0.267  0.000  0.453
tot    0.000  0.008  0.004  0.001  0.260  0.098  0.000  0.534  0.000  0.905
 
band    35 # energy   32.86623120 # occ.  0.00000000
 
ion      s     py     pz     px    dxy    dyz    dz2    dxz  x2-y2    tot
    1  0.000  0.000  0.000  0.000  0.000  0.000  0.089  0.000  0.232  0.322
    2  0.000  0.000  0.000  0.000  0.000  0.000  0.089  0.000  0.232  0.322
tot    0.000  0.000  0.000  0.000  0.000  0.000  0.179  0.000  0.465  0.643
 
band    36 # energy   32.86631654 # occ.  0.00000000
 
ion      s     py     pz     px    dxy    dyz    dz2    dxz  x2-y2    tot
    1  0.000  0.000  0.000  0.000  0.000  0.000  0.232  0.000  0.089  0.322
    2  0.000  0.000  0.000  0.000  0.000  0.000  0.233  0.000  0.089  0.322
tot    0.000  0.000  0.000  0.000  0.000  0.000  0.465  0.000  0.179  0.644
 
band    37 # energy   39.87701761 # occ.  0.00000000
 
ion      s     py     pz     px    dxy    dyz    dz2    dxz  x2-y2    tot
    1  0.145  0.000  0.000  0.000  0.000  0.000  0.000  0.000  0.000  0.146
    2  0.140  0.000  0.000  0.000  0.000  0.000  0.000  0.000  0.000  0.141
tot    0.285  0.000  0.000  0.000  0.000  0.000  0.000  0.000  0.000  0.286
 
band    38 # energy   44.26265464 # occ.  0.00000000
 
ion      s     py     pz     px    dxy    dyz    dz2    dxz  x2-y2    tot
    1  0.055  0.003  0.006  0.001  0.002  0.000  0.000  0.008  0.000  0.076
    2  0.048  0.002  0.000  0.001  0.001  0.001  0.001  0.005  0.001  0.060
tot    0.103  0.004  0.006  0.002  0.003  0.001  0.001  0.013  0.002  0.136
 
band    39 # energy   44.78437235 # occ.  0.00000000
 
ion      s     py     pz     px    dxy    dyz    dz2    dxz  x2-y2    tot
    1  0.001  0.009  0.001  0.010  0.002  0.058  0.001  0.050  0.000  0.132
    2  0.001  0.002  0.000  0.005  0.001  0.043  0.001  0.039  0.000  0.094
tot    0.002  0.012  0.001  0.015  0.003  0.101  0.002  0.089  0.000  0.226
 
band    40 # energy   44.86444681 # occ.  0.00000000
 
ion      s     py     pz     px    dxy    dyz    dz2    dxz  x2-y2    tot
    1  0.001  0.000  0.002  0.012  0.030  0.034  0.000  0.042  0.000  0.122
    2  0.001  0.013  0.004  0.001  0.041  0.022  0.000  0.068  0.000  0.151
tot    0.002  0.013  0.006  0.014  0.071  0.056  0.000  0.109  0.001  0.273
 
band    41 # energy   45.04329229 # occ.  0.00000000
 
ion      s     py     pz     px    dxy    dyz    dz2    dxz  x2-y2    tot
    1  0.000  0.021  0.007  0.006  0.021  0.005  0.004  0.016  0.005  0.084
    2  0.001  0.029  0.032  0.001  0.097  0.001  0.000  0.026  0.003  0.191
tot    0.001  0.050  0.040  0.007  0.117  0.006  0.004  0.042  0.008  0.275
 
band    42 # energy   45.15577722 # occ.  0.00000000
 
ion      s     py     pz     px    dxy    dyz    dz2    dxz  x2-y2    tot
    1  0.001  0.017  0.044  0.007  0.032  0.005  0.001  0.003  0.000  0.110
    2  0.000  0.017  0.044  0.007  0.016  0.002  0.000  0.017  0.002  0.106
tot    0.001  0.034  0.089  0.014  0.048  0.006  0.001  0.021  0.002  0.216
 
band    43 # energy   45.39379556 # occ.  0.00000000
 
ion      s     py     pz     px    dxy    dyz    dz2    dxz  x2-y2    tot
    1  0.002  0.019  0.001  0.006  0.098  0.007  0.001  0.013  0.001  0.148
    2  0.000  0.013  0.001  0.021  0.057  0.006  0.011  0.009  0.003  0.122
tot    0.002  0.031  0.002  0.027  0.155  0.013  0.012  0.021  0.004  0.270
 
band    44 # energy   45.74586403 # occ.  0.00000000
 
ion      s     py     pz     px    dxy    dyz    dz2    dxz  x2-y2    tot
    1  0.000  0.003  0.001  0.023  0.050  0.019  0.005  0.025  0.001  0.129
    2  0.000  0.000  0.005  0.035  0.023  0.017  0.003  0.027  0.005  0.115
tot    0.001  0.004  0.006  0.058  0.074  0.036  0.008  0.052  0.006  0.244
 
band    45 # energy   46.11890851 # occ.  0.00000000
 
ion      s     py     pz     px    dxy    dyz    dz2    dxz  x2-y2    tot
    1  0.000  0.013  0.004  0.004  0.084  0.000  0.002  0.074  0.000  0.182
    2  0.000  0.001  0.004  0.003  0.076  0.003  0.002  0.097  0.000  0.188
tot    0.000  0.014  0.009  0.007  0.160  0.004  0.004  0.171  0.001  0.370
 
band    46 # energy   46.23072999 # occ.  0.00000000
 
ion      s     py     pz     px    dxy    dyz    dz2    dxz  x2-y2    tot
    1  0.001  0.005  0.004  0.003  0.081  0.016  0.008  0.019  0.006  0.142
    2  0.000  0.005  0.020  0.005  0.045  0.025  0.006  0.019  0.010  0.136
tot    0.001  0.010  0.024  0.008  0.126  0.042  0.013  0.038  0.016  0.278
 
band    47 # energy   46.37144348 # occ.  0.00000000
 
ion      s     py     pz     px    dxy    dyz    dz2    dxz  x2-y2    tot
    1  0.000  0.008  0.010  0.010  0.050  0.248  0.000  0.080  0.000  0.407
    2  0.000  0.006  0.010  0.023  0.046  0.243  0.002  0.080  0.000  0.410
tot    0.000  0.014  0.020  0.033  0.096  0.491  0.002  0.160  0.001  0.816
 
band    48 # energy   46.55382356 # occ.  0.00000000
 
ion      s     py     pz     px    dxy    dyz    dz2    dxz  x2-y2    tot
    1  0.000  0.003  0.005  0.039  0.003  0.060  0.001  0.140  0.008  0.258
    2  0.000  0.038  0.001  0.010  0.010  0.098  0.015  0.093  0.010  0.273
tot    0.000  0.040  0.006  0.049  0.013  0.158  0.015  0.232  0.018  0.532
 
band    49 # energy   46.69830038 # occ.  0.00000000
 
ion      s     py     pz     px    dxy    dyz    dz2    dxz  x2-y2    tot
    1  0.002  0.008  0.003  0.024  0.016  0.010  0.039  0.008  0.048  0.160
    2  0.001  0.007  0.019  0.010  0.004  0.025  0.018  0.006  0.020  0.111
tot    0.003  0.015  0.022  0.034  0.020  0.035  0.058  0.014  0.069  0.272
 
band    50 # energy   46.93062179 # occ.  0.00000000
 
ion      s     py     pz     px    dxy    dyz    dz2    dxz  x2-y2    tot
    1  0.001  0.010  0.042  0.006  0.009  0.011  0.047  0.014  0.038  0.177
    2  0.000  0.012  0.031  0.012  0.009  0.002  0.061  0.009  0.035  0.171
tot    0.001  0.022  0.072  0.018  0.018  0.013  0.108  0.022  0.073  0.348
 
band    51 # energy   47.10391214 # occ.  0.00000000
 
ion      s     py     pz     px    dxy    dyz    dz2    dxz  x2-y2    tot
    1  0.000  0.020  0.000  0.004  0.016  0.001  0.109  0.011  0.011  0.173
    2  0.000  0.023  0.008  0.007  0.010  0.001  0.125  0.004  0.011  0.188
tot    0.000  0.043  0.008  0.011  0.026  0.002  0.234  0.015  0.022  0.361
 
band    52 # energy   47.49719711 # occ.  0.00000000
 
ion      s     py     pz     px    dxy    dyz    dz2    dxz  x2-y2    tot
    1  0.001  0.005  0.001  0.001  0.002  0.002  0.020  0.001  0.201  0.233
    2  0.000  0.002  0.000  0.002  0.001  0.001  0.040  0.004  0.101  0.151
tot    0.001  0.007  0.001  0.003  0.003  0.003  0.060  0.005  0.301  0.384
 
band    53 # energy   47.64386589 # occ.  0.00000000
 
ion      s     py     pz     px    dxy    dyz    dz2    dxz  x2-y2    tot
    1  0.000  0.000  0.000  0.004  0.002  0.006  0.132  0.000  0.123  0.268
    2  0.000  0.001  0.001  0.004  0.001  0.004  0.041  0.003  0.154  0.209
tot    0.001  0.001  0.001  0.007  0.003  0.009  0.174  0.003  0.278  0.477
 
band    54 # energy   47.82964302 # occ.  0.00000000
 
ion      s     py     pz     px    dxy    dyz    dz2    dxz  x2-y2    tot
    1  0.004  0.002  0.001  0.000  0.010  0.001  0.191  0.000  0.075  0.285
    2  0.006  0.000  0.002  0.002  0.006  0.000  0.121  0.000  0.080  0.218
tot    0.010  0.003  0.003  0.002  0.016  0.001  0.312  0.001  0.155  0.503
 

 k-point     2 :    0.16666667 0.00000000 0.00000000     weight = 0.03703704

band     1 # energy  -19.71865542 # occ.  1.00000000
 
ion      s     py     pz     px    dxy    dyz    dz2    dxz  x2-y2    tot
    1  0.000  0.000  0.000  0.000  0.073  0.293  0.014  0.074  0.042  0.497
    2  0.000  0.000  0.000  0.000  0.073  0.293  0.014  0.074  0.042  0.497
tot    0.000  0.000  0.000  0.001  0.146  0.587  0.028  0.147  0.084  0.993
 
band     2 # energy  -19.71865331 # occ.  1.00000000
 
ion      s     py     pz     px    dxy    dyz    dz2    dxz  x2-y2    tot
    1  0.000  0.000  0.000  0.000  0.220  0.000  0.042  0.220  0.014  0.497
    2  0.000  0.000  0.000  0.000  0.220  0.000  0.042  0.220  0.014  0.497
tot    0.000  0.000  0.000  0.000  0.441  0.000  0.084  0.439  0.028  0.993
 
band     3 # energy  -19.70192802 # occ.  1.00000000
 
ion      s     py     pz     px    dxy    dyz    dz2    dxz  x2-y2    tot
    1  0.000  0.000  0.000  0.000  0.165  0.165  0.000  0.165  0.000  0.497
    2  0.000  0.000  0.000  0.000  0.165  0.165  0.000  0.165  0.000  0.497
tot    0.000  0.000  0.000  0.000  0.331  0.331  0.000  0.331  0.000  0.994
 
band     4 # energy  -19.65167669 # occ.  1.00000000
 
ion      s     py     pz     px    dxy    dyz    dz2    dxz  x2-y2    tot
    1  0.000  0.000  0.000  0.000  0.028  0.000  0.325  0.029  0.114  0.496
    2  0.000  0.000  0.000  0.000  0.028  0.000  0.325  0.029  0.114  0.496
tot    0.000  0.000  0.000  0.000  0.056  0.000  0.650  0.058  0.228  0.993
 
band     5 # energy  -19.65167628 # occ.  1.00000000
 
ion      s     py     pz     px    dxy    dyz    dz2    dxz  x2-y2    tot
    1  0.000  0.000  0.000  0.000  0.010  0.038  0.114  0.009  0.325  0.496
    2  0.000  0.000  0.000  0.000  0.010  0.038  0.114  0.009  0.325  0.496
tot    0.000  0.000  0.000  0.000  0.020  0.076  0.228  0.018  0.650  0.993
 
band     6 # energy  -19.46896719 # occ.  1.00000000
 
ion      s     py     pz     px    dxy    dyz    dz2    dxz  x2-y2    tot
    1  0.000  0.000  0.000  0.000  0.036  0.148  0.067  0.038  0.210  0.498
    2  0.000  0.000  0.000  0.000  0.036  0.148  0.067  0.038  0.210  0.498
tot    0.000  0.000  0.000  0.000  0.071  0.295  0.133  0.077  0.419  0.996
 
band     7 # energy  -19.46896697 # occ.  1.00000000
 
ion      s     py     pz     px    dxy    dyz    dz2    dxz  x2-y2    tot
    1  0.000  0.000  0.000  0.000  0.112  0.000  0.210  0.109  0.067  0.498
    2  0.000  0.000  0.000  0.000  0.112  0.000  0.210  0.109  0.067  0.498
tot    0.000  0.000  0.000  0.000  0.224  0.000  0.419  0.219  0.133  0.996
 
band     8 # energy  -19.45666475 # occ.  1.00000000
 
ion      s     py     pz     px    dxy    dyz    dz2    dxz  x2-y2    tot
    1  0.000  0.000  0.000  0.000  0.166  0.166  0.000  0.166  0.000  0.498
    2  0.000  0.000  0.000  0.000  0.166  0.166  0.000  0.166  0.000  0.498
tot    0.000  0.000  0.000  0.000  0.332  0.332  0.000  0.332  0.000  0.996
 
band     9 # energy  -19.42285043 # occ.  1.00000000
 
ion      s     py     pz     px    dxy    dyz    dz2    dxz  x2-y2    tot
    1  0.000  0.000  0.000  0.000  0.047  0.184  0.057  0.045  0.166  0.499
    2  0.000  0.000  0.000  0.000  0.047  0.184  0.057  0.045  0.166  0.499
tot    0.000  0.000  0.000  0.000  0.093  0.367  0.114  0.090  0.333  0.998
 
band    10 # energy  -19.42284894 # occ.  1.00000000
 
ion      s     py     pz     px    dxy    dyz    dz2    dxz  x2-y2    tot
    1  0.000  0.000  0.000  0.000  0.137  0.000  0.166  0.138  0.057  0.499
    2  0.000  0.000  0.000  0.000  0.137  0.000  0.166  0.138  0.057  0.499
tot    0.000  0.000  0.000  0.000  0.274  0.000  0.333  0.277  0.114  0.998
 
band    11 # energy   -7.40408899 # occ.  1.00000000
 
ion      s     py     pz     px    dxy    dyz    dz2    dxz  x2-y2    tot
    1  0.309  0.002  0.002  0.002  0.000  0.000  0.000  0.000  0.000  0.315
    2  0.309  0.002  0.002  0.002  0.000  0.000  0.000  0.000  0.000  0.315
tot    0.618  0.003  0.003  0.003  0.000  0.000  0.000  0.000  0.000  0.629
 
band    12 # energy    1.96661943 # occ.  1.00000000
 
ion      s     py     pz     px    dxy    dyz    dz2    dxz  x2-y2    tot
    1  0.181  0.050  0.050  0.050  0.006  0.006  0.000  0.006  0.000  0.350
    2  0.181  0.050  0.050  0.050  0.006  0.006  0.000  0.006  0.000  0.350
tot    0.363  0.100  0.100  0.100  0.012  0.012  0.000  0.012  0.000  0.700
 
band    13 # energy    4.59761714 # occ.  1.00000000
 
ion      s     py     pz     px    dxy    dyz    dz2    dxz  x2-y2    tot
    1  0.000  0.050  0.050  0.201  0.005  0.020  0.000  0.005  0.001  0.331
    2  0.000  0.050  0.050  0.201  0.005  0.020  0.000  0.005  0.001  0.331
tot    0.000  0.101  0.100  0.402  0.010  0.039  0.000  0.010  0.001  0.663
 
band    14 # energy    4.59761941 # occ.  1.00000000
 
ion      s     py     pz     px    dxy    dyz    dz2    dxz  x2-y2    tot
    1  0.000  0.151  0.151  0.000  0.015  0.000  0.001  0.015  0.000  0.331
    2  0.000  0.151  0.151  0.000  0.015  0.000  0.001  0.015  0.000  0.331
tot    0.000  0.301  0.301  0.000  0.029  0.000  0.001  0.029  0.000  0.663
 
band    15 # energy    6.14188183 # occ.  0.00000000
 
ion      s     py     pz     px    dxy    dyz    dz2    dxz  x2-y2    tot
    1  0.197  0.035  0.035  0.035  0.006  0.006  0.000  0.006  0.000  0.319
    2  0.197  0.035  0.035  0.035  0.006  0.006  0.000  0.006  0.000  0.319
tot    0.393  0.070  0.070  0.070  0.012  0.012  0.000  0.012  0.000  0.639
 
band    16 # energy    8.38818054 # occ.  0.00000000
 
ion      s     py     pz     px    dxy    dyz    dz2    dxz  x2-y2    tot
    1  0.000  0.074  0.010  0.133  0.002  0.031  0.000  0.017  0.004  0.272
    2  0.000  0.074  0.010  0.133  0.002  0.031  0.000  0.017  0.004  0.272
tot    0.000  0.148  0.020  0.267  0.005  0.061  0.001  0.034  0.009  0.545
 
band    17 # energy    8.38819151 # occ.  0.00000000
 
ion      s     py     pz     px    dxy    dyz    dz2    dxz  x2-y2    tot
    1  0.000  0.071  0.135  0.012  0.031  0.003  0.004  0.016  0.000  0.272
    2  0.000  0.071  0.135  0.012  0.031  0.003  0.004  0.016  0.000  0.272
tot    0.000  0.142  0.270  0.023  0.062  0.005  0.009  0.033  0.001  0.545
 
band    18 # energy    9.34996515 # occ.  0.00000000
 
ion      s     py     pz     px    dxy    dyz    dz2    dxz  x2-y2    tot
    1  0.079  0.066  0.066  0.066  0.013  0.013  0.000  0.013  0.000  0.316
    2  0.079  0.066  0.066  0.066  0.013  0.013  0.000  0.013  0.000  0.316
tot    0.157  0.133  0.133  0.133  0.026  0.026  0.000  0.026  0.000  0.632
 
band    19 # energy   12.99628608 # occ.  0.00000000
 
ion      s     py     pz     px    dxy    dyz    dz2    dxz  x2-y2    tot
    1  0.054  0.022  0.022  0.022  0.002  0.002  0.000  0.002  0.000  0.129
    2  0.054  0.022  0.022  0.022  0.002  0.002  0.000  0.002  0.000  0.129
tot    0.107  0.045  0.045  0.045  0.005  0.005  0.000  0.005  0.000  0.257
 
band    20 # energy   13.49767042 # occ.  0.00000000
 
ion      s     py     pz     px    dxy    dyz    dz2    dxz  x2-y2    tot
    1  0.000  0.000  0.003  0.001  0.019  0.010  0.121  0.002  0.010  0.165
    2  0.000  0.000  0.003  0.001  0.019  0.010  0.121  0.002  0.010  0.165
tot    0.000  0.000  0.005  0.003  0.037  0.020  0.241  0.003  0.021  0.331
 
band    21 # energy   13.49767047 # occ.  0.00000000
 
ion      s     py     pz     px    dxy    dyz    dz2    dxz  x2-y2    tot
    1  0.000  0.003  0.000  0.001  0.002  0.010  0.010  0.018  0.121  0.165
    2  0.000  0.003  0.000  0.001  0.002  0.010  0.010  0.018  0.121  0.165
tot    0.000  0.005  0.000  0.003  0.003  0.020  0.021  0.037  0.241  0.331
 
band    22 # energy   15.16226835 # occ.  0.00000000
 
ion      s     py     pz     px    dxy    dyz    dz2    dxz  x2-y2    tot
    1  0.017  0.008  0.008  0.008  0.013  0.013  0.000  0.013  0.000  0.080
    2  0.017  0.008  0.008  0.008  0.013  0.013  0.000  0.013  0.000  0.080
tot    0.034  0.016  0.016  0.016  0.026  0.026  0.000  0.026  0.000  0.159
 
band    23 # energy   18.42410892 # occ.  0.00000000
 
ion      s     py     pz     px    dxy    dyz    dz2    dxz  x2-y2    tot
    1  0.000  0.002  0.013  0.009  0.013  0.009  0.073  0.002  0.017  0.139
    2  0.000  0.002  0.013  0.009  0.013  0.009  0.073  0.002  0.017  0.139
tot    0.000  0.005  0.026  0.018  0.027  0.018  0.147  0.005  0.033  0.277
 
band    24 # energy   18.42411013 # occ.  0.00000000
 
ion      s     py     pz     px    dxy    dyz    dz2    dxz  x2-y2    tot
    1  0.000  0.014  0.003  0.007  0.003  0.007  0.017  0.014  0.073  0.139
    2  0.000  0.014  0.003  0.007  0.003  0.007  0.017  0.014  0.073  0.139
tot    0.000  0.028  0.006  0.015  0.006  0.015  0.033  0.028  0.147  0.277
 
band    25 # energy   21.29809509 # occ.  0.00000000
 
ion      s     py     pz     px    dxy    dyz    dz2    dxz  x2-y2    tot
    1  0.015  0.005  0.005  0.005  0.006  0.006  0.000  0.006  0.000  0.047
    2  0.015  0.005  0.005  0.005  0.006  0.006  0.000  0.006  0.000  0.047
tot    0.030  0.010  0.010  0.010  0.012  0.012  0.000  0.012  0.000  0.095
 
band    26 # energy   26.00891400 # occ.  0.00000000
 
ion      s     py     pz     px    dxy    dyz    dz2    dxz  x2-y2    tot
    1  0.000  0.022  0.030  0.004  0.066  0.008  0.045  0.048  0.011  0.235
    2  0.000  0.022  0.030  0.004  0.066  0.008  0.045  0.048  0.011  0.235
tot    0.000  0.044  0.061  0.008  0.132  0.016  0.091  0.096  0.022  0.469
 
band    27 # energy   26.00891746 # occ.  0.00000000
 
ion      s     py     pz     px    dxy    dyz    dz2    dxz  x2-y2    tot
    1  0.000  0.015  0.007  0.034  0.016  0.073  0.011  0.033  0.045  0.235
    2  0.000  0.015  0.007  0.034  0.016  0.073  0.011  0.033  0.045  0.235
tot    0.000  0.031  0.014  0.067  0.031  0.146  0.022  0.067  0.091  0.469
 
band    28 # energy   26.24635169 # occ.  0.00000000
 
ion      s     py     pz     px    dxy    dyz    dz2    dxz  x2-y2    tot
    1  0.021  0.046  0.046  0.046  0.048  0.048  0.000  0.048  0.000  0.303
    2  0.021  0.046  0.046  0.046  0.048  0.048  0.000  0.048  0.000  0.303
tot    0.043  0.092  0.092  0.092  0.096  0.096  0.000  0.096  0.000  0.606
 
band    29 # energy   31.16496947 # occ.  0.00000000
 
ion      s     py     pz     px    dxy    dyz    dz2    dxz  x2-y2    tot
    1  0.000  0.021  0.033  0.100  0.009  0.028  0.001  0.006  0.002  0.199
    2  0.000  0.021  0.033  0.100  0.009  0.028  0.001  0.006  0.002  0.199