    2    2    1    1
  0.2779610E+02  0.4283936E-09  0.4283936E-09  0.4283936E-09  0.5000000E-15
  1.000000000000000E-004
  CAR 
 unknown system                          
     18    280     21
 
  0.0000000E+00  0.0000000E+00  0.0000000E+00  0.2915452E-02
    1      -12.572777   1.000000
    2      -12.572766   1.000000
    3      -12.572762   1.000000
    4      -12.572759   1.000000
    5      -11.744006   1.000000
    6      -11.744003   1.000000
    7      -11.655213   1.000000
    8      -11.655211   1.000000
    9      -11.655205   1.000000
   10      -11.655203   1.000000
   11       -8.975004   1.000000
   12       -8.974917   1.000000
   13        3.776887   1.000000
   14        3.776946   1.000000
   15        4.158410   1.013430
   16        4.158462   1.012132
   17        4.158631   1.004234
   18        4.159249   0.970204
   19        4.543048  -0.000000
   20        4.543113  -0.000000
   21        8.697849   0.000000
 
  0.1428571E+00  0.0000000E+00  0.0000000E+00  0.1166181E-01
    1      -12.576766   1.000000
    2      -12.576760   1.000000
    3      -12.574982   1.000000
    4      -12.567363   1.000000
    5      -11.747447   1.000000
    6      -11.747444   1.000000
    7      -11.663970   1.000000
    8      -11.663964   1.000000
    9      -11.654021   1.000000
   10      -11.644708   1.000000
   11       -8.749024   1.000000
   12       -8.748937   1.000000
   13        1.880656   1.000000
   14        1.880791   1.000000
   15        3.646917   1.000000
   16        3.647075   1.000000
   17        3.899186   1.000000
   18        3.909891   1.000000
   19        5.864216   0.000000
   20        5.864239   0.000000
   21        8.925256   0.000000
 
  0.2857143E+00  0.0000000E+00  0.0000000E+00  0.1166181E-01
    1      -12.586766   1.000000
    2      -12.586760   1.000000
    3      -12.572576   1.000000
    4      -12.563142   1.000000
    5      -11.753936   1.000000
    6      -11.753932   1.000000
    7      -11.680153   1.000000
    8      -11.680146   1.000000
    9      -11.641460   1.000000
   10      -11.629896   1.000000
   11       -8.147932   1.000000
   12       -8.147842   1.000000
   13       -0.407600   1.000000
   14       -0.407518   1.000000
   15        3.176754   1.000000
   16        3.176873   1.000000
   17        3.437583   1.000000
   18        3.449089   1.000000
   19        5.926889   0.000000
   20        5.926902   0.000000
   21        9.504417   0.000000
 
  0.4285714E+00  0.0000000E+00  0.0000000E+00  0.1166181E-01
    1      -12.595840   1.000000
    2      -12.595834   1.000000
    3      -12.567578   1.000000
    4      -12.563403   1.000000
    5      -11.758030   1.000000
    6      -11.758026   1.000000
    7      -11.690327   1.000000
    8      -11.690319   1.000000
    9      -11.626823   1.000000
   10      -11.621695   1.000000
   11       -7.497718   1.000000
   12       -7.497622   1.000000
   13       -1.966662   1.000000
   14       -1.966614   1.000000
   15        2.870855   1.000000
   16        2.870959   1.000000
   17        3.138995   1.000000
   18        3.143735   1.000000
   19        5.712748   0.000000
   20        5.712759   0.000000
   21        9.460193   0.000000
 
 -0.4285714E+00  0.0000000E+00  0.0000000E+00  0.1166181E-01
    1      -12.595833   1.000000
    2      -12.595826   1.000000
    3      -12.567569   1.000000
    4      -12.563396   1.000000
    5      -11.758022   1.000000
    6      -11.758018   1.000000
    7      -11.690319   1.000000
    8      -11.690312   1.000000
    9      -11.626815   1.000000
   10      -11.621688   1.000000
   11       -7.497708   1.000000
   12       -7.497613   1.000000
   13       -1.966654   1.000000
   14       -1.966623   1.000000
   15        2.870864   1.000000
   16        2.870969   1.000000
   17        3.139024   1.000000
   18        3.143722   1.000000
   19        5.712753   0.000000
   20        5.712784   0.000000
   21        9.443968   0.000000
 
 -0.2857143E+00  0.0000000E+00  0.0000000E+00  0.1166181E-01
    1      -12.586761   1.000000
    2      -12.586755   1.000000
    3      -12.572571   1.000000
    4      -12.563138   1.000000
    5      -11.753930   1.000000
    6      -11.753927   1.000000
    7      -11.680148   1.000000
    8      -11.680141   1.000000
    9      -11.641455   1.000000
   10      -11.629891   1.000000
   11       -8.147924   1.000000
   12       -8.147836   1.000000
   13       -0.407596   1.000000
   14       -0.407567   1.000000
   15        3.176759   1.000000
   16        3.176876   1.000000
   17        3.437613   1.000000
   18        3.449064   1.000000
   19        5.926891   0.000000
   20        5.926908   0.000000
   21        9.503043   0.000000
 
 -0.1428571E+00  0.0000000E+00  0.0000000E+00  0.1166181E-01
    1      -12.576764   1.000000
    2      -12.576757   1.000000
    3      -12.574979   1.000000
    4      -12.567361   1.000000
    5      -11.747445   1.000000
    6      -11.747442   1.000000
    7      -11.663968   1.000000
    8      -11.663962   1.000000
    9      -11.654019   1.000000
   10      -11.644705   1.000000
   11       -8.749020   1.000000
   12       -8.748933   1.000000
   13        1.880657   1.000000
   14        1.880680   1.000000
   15        3.646917   1.000000
   16        3.647065   1.000000
   17        3.899229   1.000000
   18        3.909847   1.000000
   19        5.864241   0.000000
   20        5.864313   0.000000
   21        8.996764   0.000000
 
  0.1428571E+00  0.1428571E+00  0.0000000E+00  0.1749271E-01
    1      -12.583339   1.000000
    2      -12.583325   1.000000
    3      -12.565324   1.000000
    4      -12.565322   1.000000
    5      -11.750263   1.000000
    6      -11.750259   1.000000
    7      -11.658880   1.000000
    8      -11.658876   1.000000
    9      -11.652857   1.000000
   10      -11.652851   1.000000
   11       -8.674151   1.000000
   12       -8.674062   1.000000
   13        1.837918   1.000000
   14        1.838140   1.000000
   15        3.257115   1.000000
   16        3.257272   1.000000
   17        3.416871   1.000000
   18        3.417073   1.000000
   19        6.658198   0.000000
   20        7.293596   0.000000
   21        7.818307   0.000000
 
  0.2857143E+00  0.1428571E+00  0.0000000E+00  0.3498542E-01
    1      -12.601977   1.000000
    2      -12.585782   1.000000
    3      -12.563431   1.000000
    4      -12.555660   1.000000
    5      -11.774253   1.000000
    6      -11.742600   1.000000
    7      -11.670821   1.000000
    8      -11.664937   1.000000
    9      -11.645327   1.000000
   10      -11.638798   1.000000
   11       -8.197465   1.000000
   12       -8.192733   1.000000
   13        0.120281   1.000000
   14        0.123501   1.000000
   15        2.693195   1.000000
   16        2.712647   1.000000
   17        2.887012   1.000000
   18        2.897389   1.000000
   19        7.064253   0.000000
   20        7.072134   0.000000
   21        8.131556   0.000000
 
  0.4285714E+00  0.1428571E+00  0.0000000E+00  0.3498542E-01
    1      -12.620717   1.000000
    2      -12.587422   1.000000
    3      -12.560217   1.000000
    4      -12.549672   1.000000
    5      -11.797873   1.000000
    6      -11.729118   1.000000
    7      -11.686631   1.000000
    8      -11.673405   1.000000
    9      -11.630620   1.000000
   10      -11.627441   1.000000
   11       -7.529966   1.000000
   12       -7.523424   1.000000
   13       -1.554391   1.000000
   14       -1.535020   1.000000
   15        2.097383   1.000000
   16        2.117745   1.000000
   17        2.615749   1.000000
   18        2.616679   1.000000
   19        6.852105   0.000000
   20        6.859122   0.000000
   21        8.939232   0.000000
 
 -0.4285714E+00  0.1428571E+00  0.0000000E+00  0.3498542E-01
    1      -12.626414   1.000000
    2      -12.588732   1.000000
    3      -12.557285   1.000000
    4      -12.548756   1.000000
    5      -11.805614   1.000000
    6      -11.718418   1.000000
    7      -11.698450   1.000000
    8      -11.675703   1.000000
    9      -11.625753   1.000000
   10      -11.623721   1.000000
   11       -7.259850   1.000000
   12       -7.253761   1.000000
   13       -2.092759   1.000000
   14       -2.064654   1.000000
   15        1.747469   1.000000
   16        1.758872   1.000000
   17        2.742365   1.000000
   18        2.749313   1.000000
   19        6.795979   0.000000
   20        6.798249   0.000000
   21        9.107710   0.000000
 
 -0.2857143E+00  0.1428571E+00  0.0000000E+00  0.3498542E-01
    1      -12.614852   1.000000
    2      -12.587884   1.000000
    3      -12.557491   1.000000
    4      -12.553559   1.000000
    5      -11.794257   1.000000
    6      -11.725325   1.000000
    7      -11.690872   1.000000
    8      -11.671625   1.000000
    9      -11.634931   1.000000
   10      -11.628730   1.000000
   11       -7.753054   1.000000
   12       -7.744919   1.000000
   13       -1.066715   1.000000
   14       -1.044962   1.000000
   15        1.845310   1.000000
   16        1.853559   1.000000
   17        3.182982   1.000000
   18        3.195255   1.000000
   19        6.919790   0.000000
   20        6.935200   0.000000
   21        9.478214   0.000000
 
 -0.1428571E+00  0.1428571E+00  0.0000000E+00  0.3498542E-01
    1      -12.593096   1.000000
    2      -12.583809   1.000000
    3      -12.563902   1.000000
    4      -12.561912   1.000000
    5      -11.768861   1.000000
    6      -11.737699   1.000000
    7      -11.675457   1.000000
    8      -11.665332   1.000000
    9      -11.647795   1.000000
   10      -11.639109   1.000000
   11       -8.398411   1.000000
   12       -8.392921   1.000000
   13        0.637619   1.000000
   14        0.642005   1.000000
   15        2.574985   1.000000
   16        2.591889   1.000000
   17        3.684136   1.000000
   18        3.699195   1.000000
   19        6.755242   0.000000
   20        6.757081   0.000000
   21        8.973844   0.000000
 
  0.2857143E+00  0.2857143E+00  0.0000000E+00  0.1749271E-01
    1      -12.606137   1.000000
    2      -12.606122   1.000000
    3      -12.550737   1.000000
    4      -12.550734   1.000000
    5      -11.768592   1.000000
    6      -11.768588   1.000000
    7      -11.652297   1.000000
    8      -11.652291   1.000000
    9      -11.646139   1.000000
   10      -11.646135   1.000000
   11       -7.869624   1.000000
   12       -7.869530   1.000000
   13       -0.370495   1.000000
   14       -0.370351   1.000000
   15        2.217413   1.000000
   16        2.217481   1.000000
   17        2.292789   1.000000
   18        2.292899   1.000000
   19        6.741068   0.000000
   20        6.745254   0.000000
   21        7.539703   0.000000
 
  0.4285714E+00  0.2857143E+00  0.0000000E+00  0.3498542E-01
    1      -12.632235   1.000000
    2      -12.600491   1.000000
    3      -12.548849   1.000000
    4      -12.539335   1.000000
    5      -11.806894   1.000000
    6      -11.745365   1.000000
    7      -11.658437   1.000000
    8      -11.655825   1.000000
    9      -11.639137   1.000000
   10      -11.629932   1.000000
   11       -7.312606   1.000000
   12       -7.307746   1.000000
   13       -1.459373   1.000000
   14       -1.437799   1.000000
   15        1.461986   1.000000
   16        1.480292   1.000000
   17        1.980346   1.000000
   18        1.980512   1.000000
   19        6.807371   0.000000
   20        6.831328   0.000000
   21        7.921542   0.000000
 
 -0.4285714E+00  0.2857143E+00  0.0000000E+00  0.3498542E-01
    1      -12.646241   1.000000
    2      -12.594567   1.000000
    3      -12.548371   1.000000
    4      -12.530944   1.000000
    5      -11.832139   1.000000
    6      -11.722381   1.000000
    7      -11.671430   1.000000
    8      -11.662181   1.000000
    9      -11.632488   1.000000
   10      -11.623754   1.000000
   11       -6.938470   1.000000
   12       -6.934359   1.000000
   13       -2.050094   1.000000
   14       -1.997071   1.000000
   15        0.665307   1.000000
   16        0.668309   1.000000
   17        2.111187   1.000000
   18        2.116036   1.000000
   19        6.966919   0.000000
   20        6.968971   0.000000
   21        9.504826   0.000000
 
 -0.2857143E+00  0.2857143E+00  0.0000000E+00  0.3498542E-01
    1      -12.639506   1.000000
    2      -12.591535   1.000000
    3      -12.551136   1.000000
    4      -12.534118   1.000000
    5      -11.827568   1.000000
    6      -11.708129   1.000000
    7      -11.692980   1.000000
    8      -11.664642   1.000000
    9      -11.630110   1.000000
   10      -11.626624   1.000000
   11       -7.193572   1.000000
   12       -7.185745   1.000000
   13       -1.700616   1.000000
   14       -1.645266   1.000000
   15        0.639692   1.000000
   16        0.646642   1.000000
   17        2.603255   1.000000
   18        2.612599   1.000000
   19        7.303445   0.000000
   20        7.327182   0.000000
   21       10.106373   0.000000
 
 -0.1428571E+00  0.2857143E+00  0.0000000E+00  0.3498542E-01
    1      -12.614855   1.000000
    2      -12.587887   1.000000
    3      -12.557493   1.000000
    4      -12.553561   1.000000
    5      -11.794260   1.000000
    6      -11.725329   1.000000
    7      -11.690873   1.000000
    8      -11.671625   1.000000
    9      -11.634934   1.000000
   10      -11.628735   1.000000
   11       -7.753054   1.000000
   12       -7.744919   1.000000
   13       -1.066729   1.000000
   14       -1.044963   1.000000
   15        1.845317   1.000000
   16        1.853549   1.000000
   17        3.182972   1.000000
   18        3.195249   1.000000
   19        6.919649   0.000000
   20        6.935365   0.000000
   21        9.653628   0.000000
 
  0.4285714E+00  0.4285714E+00  0.0000000E+00  0.1749271E-01
    1      -12.624942   1.000000
    2      -12.624927   1.000000
    3      -12.539768   1.000000
    4      -12.539764   1.000000
    5      -11.781914   1.000000
    6      -11.781910   1.000000
    7      -11.650440   1.000000
    8      -11.650436   1.000000
    9      -11.629263   1.000000
   10      -11.629261   1.000000
   11       -6.959328   1.000000
   12       -6.959227   1.000000
   13       -1.999774   1.000000
   14       -1.999672   1.000000
   15        1.589291   1.000000
   16        1.589337   1.000000
   17        1.616873   1.000000
   18        1.616963   1.000000
   19        6.227204   0.000000
   20        6.231618   0.000000
   21        6.896599   0.000000
 
 -0.4285714E+00  0.4285714E+00  0.0000000E+00  0.3498542E-01
    1      -12.645161   1.000000
    2      -12.607477   1.000000
    3      -12.542536   1.000000
    4      -12.532258   1.000000
    5      -11.819457   1.000000
    6      -11.747447   1.000000
    7      -11.655537   1.000000
    8      -11.643110   1.000000
    9      -11.642308   1.000000
   10      -11.621205   1.000000
   11       -6.772010   1.000000
   12       -6.771080   1.000000
   13       -2.227185   1.000000
   14       -2.192777   1.000000
   15        0.976442   1.000000
   16        0.988538   1.000000
   17        1.657664   1.000000
   18        1.658604   1.000000
   19        6.505595   0.000000
   20        6.528504   0.000000
   21        7.631785   0.000000
 
 -0.2857143E+00  0.4285714E+00  0.0000000E+00  0.3498542E-01
    1      -12.646244   1.000000
    2      -12.594570   1.000000
    3      -12.548373   1.000000
    4      -12.530947   1.000000
    5      -11.832142   1.000000
    6      -11.722385   1.000000
    7      -11.671431   1.000000
    8      -11.662182   1.000000
    9      -11.632490   1.000000
   10      -11.623758   1.000000
   11       -6.938468   1.000000
   12       -6.934357   1.000000
   13       -2.050118   1.000000
   14       -1.997082   1.000000
   15        0.665316   1.000000
   16        0.668308   1.000000
   17        2.111181   1.000000
   18        2.116031   1.000000
   19        6.967817   0.000000
   20        6.968301   0.000000
   21        9.604165   0.000000
 
 -0.1428571E+00  0.4285714E+00  0.0000000E+00  0.3498542E-01
    1      -12.626421   1.000000
    2      -12.588738   1.000000
    3      -12.557289   1.000000
    4      -12.548761   1.000000
    5      -11.805620   1.000000
    6      -11.718428   1.000000
    7      -11.698450   1.000000
    8      -11.675705   1.000000
    9      -11.625758   1.000000
   10      -11.623729   1.000000
   11       -7.259848   1.000000
   12       -7.253759   1.000000
   13       -2.092791   1.000000
   14       -2.064669   1.000000
   15        1.747479   1.000000
   16        1.758865   1.000000
   17        2.742348   1.000000
   18        2.749302   1.000000
   19        6.796058   0.000000
   20        6.798077   0.000000
   21        9.112791   0.000000
 
 -0.2857143E+00 -0.4285714E+00  0.0000000E+00  0.3498542E-01
    1      -12.632222   1.000000
    2      -12.600478   1.000000
    3      -12.548836   1.000000
    4      -12.539322   1.000000
    5      -11.806881   1.000000
    6      -11.745353   1.000000
    7      -11.658422   1.000000
    8      -11.655810   1.000000
    9      -11.639125   1.000000
   10      -11.629920   1.000000
   11       -7.312587   1.000000
   12       -7.307728   1.000000
   13       -1.459392   1.000000
   14       -1.437795   1.000000
   15        1.462013   1.000000
   16        1.480307   1.000000
   17        1.980354   1.000000
   18        1.980520   1.000000
   19        6.820779   0.000000
   20        6.821580   0.000000
   21        7.902055   0.000000
 
 -0.1428571E+00 -0.4285714E+00  0.0000000E+00  0.3498542E-01
    1      -12.620707   1.000000
    2      -12.587413   1.000000
    3      -12.560206   1.000000
    4      -12.549661   1.000000
    5      -11.797863   1.000000
    6      -11.729111   1.000000
    7      -11.686617   1.000000
    8      -11.673391   1.000000
    9      -11.630612   1.000000
   10      -11.627430   1.000000
   11       -7.529948   1.000000
   12       -7.523406   1.000000
   13       -1.554420   1.000000
   14       -1.535019   1.000000
   15        2.097409   1.000000
   16        2.117760   1.000000
   17        2.615738   1.000000
   18        2.616684   1.000000
   19        6.852260   0.000000
   20        6.859039   0.000000
   21        8.938191   0.000000
 
 -0.1428571E+00 -0.2857143E+00  0.0000000E+00  0.3498542E-01
    1      -12.601970   1.000000
    2      -12.585775   1.000000
    3      -12.563423   1.000000
    4      -12.555652   1.000000
    5      -11.774245   1.000000
    6      -11.742594   1.000000
    7      -11.670811   1.000000
    8      -11.664926   1.000000
    9      -11.645321   1.000000
   10      -11.638791   1.000000
   11       -8.197452   1.000000
   12       -8.192722   1.000000
   13        0.120231   1.000000
   14        0.123514   1.000000
   15        2.693212   1.000000
   16        2.712680   1.000000
   17        2.887018   1.000000
   18        2.897343   1.000000
   19        7.065574   0.000000
   20        7.199161   0.000000
   21        8.124069   0.000000
 
  0.4285714E+00  0.2857143E+00  0.1428571E+00  0.6997085E-01
    1      -12.623800   1.000000
    2      -12.590427   1.000000
    3      -12.554844   1.000000
    4      -12.545039   1.000000
    5      -11.803487   1.000000
    6      -11.730914   1.000000
    7      -11.675058   1.000000
    8      -11.662583   1.000000
    9      -11.635928   1.000000
   10      -11.634695   1.000000
   11       -7.670645   1.000000
   12       -7.662504   1.000000
   13       -0.908722   1.000000
   14       -0.884077   1.000000
   15        1.532156   1.000000
   16        1.538414   1.000000
   17        2.571406   1.000000
   18        2.599013   1.000000
   19        7.867311   0.000000
   20        8.012307   0.000000
   21        8.135930   0.000000
 
 -0.4285714E+00  0.2857143E+00  0.1428571E+00  0.6997085E-01
    1      -12.641704   1.000000
    2      -12.590742   1.000000
    3      -12.550221   1.000000
    4      -12.535628   1.000000
    5      -11.828529   1.000000
    6      -11.712149   1.000000
    7      -11.686181   1.000000
    8      -11.664105   1.000000
    9      -11.629561   1.000000
   10      -11.626847   1.000000
   11       -7.115958   1.000000
   12       -7.109531   1.000000
   13       -1.874990   1.000000
   14       -1.828236   1.000000
   15        0.952870   1.000000
   16        0.957966   1.000000
   17        2.134321   1.000000
   18        2.163016   1.000000
   19        7.881507   0.000000
   20        8.145114   0.000000
   21        8.829957   0.000000
 
 -0.2857143E+00  0.2857143E+00  0.1428571E+00  0.6997085E-01
    1      -12.641706   1.000000
    2      -12.590741   1.000000
    3      -12.550222   1.000000
    4      -12.535634   1.000000
    5      -11.828531   1.000000
    6      -11.712148   1.000000
    7      -11.686185   1.000000
    8      -11.664106   1.000000
    9      -11.629563   1.000000
   10      -11.626851   1.000000
   11       -7.115950   1.000000
   12       -7.109536   1.000000
   13       -1.875015   1.000000
   14       -1.828232   1.000000
   15        0.952824   1.000000
   16        0.958006   1.000000
   17        2.134339   1.000000
   18        2.163009   1.000000
   19        7.882676   0.000000
   20        8.032018   0.000000
   21        8.833069   0.000000
 
 -0.4285714E+00  0.4285714E+00  0.1428571E+00  0.6997085E-01
    1      -12.647891   1.000000
    2      -12.598545   1.000000
    3      -12.543634   1.000000
    4      -12.532665   1.000000
    5      -11.830396   1.000000
    6      -11.730658   1.000000
    7      -11.659571   1.000000
    8      -11.654746   1.000000
    9      -11.638044   1.000000
   10      -11.623686   1.000000
   11       -6.892376   1.000000
   12       -6.889422   1.000000
   13       -2.013682   1.000000
   14       -1.970583   1.000000
   15        1.040080   1.000000
   16        1.049779   1.000000
   17        1.407871   1.000000
   18        1.442188   1.000000
   19        7.494644   0.000000
   20        7.654022   0.000000
   21        7.949071   0.000000
 
 -0.2857143E+00  0.4285714E+00  0.1428571E+00  0.6997085E-01
    1      -12.654025   1.000000
    2      -12.592880   1.000000
    3      -12.543544   1.000000
    4      -12.528548   1.000000
    5      -11.845181   1.000000
    6      -11.709011   1.000000
    7      -11.675574   1.000000
    8      -11.658297   1.000000
    9      -11.632150   1.000000
   10      -11.625037   1.000000
   11       -6.792124   1.000000
   12       -6.789968   1.000000
   13       -2.094584   1.000000
   14       -2.030693   1.000000
   15        0.551572   1.000000
   16        0.560164   1.000000
   17        1.494023   1.000000
   18        1.523862   1.000000
   19        7.966618   0.000000
   20        7.967736   0.000000
   21        9.634013   0.000000
 
  0.0000000E+00  0.0000000E+00  0.0000000E+00  0.0000000E+00
    1      -12.572777   1.000000
    2      -12.572766   1.000000
    3      -12.572762   1.000000
    4      -12.572759   1.000000
    5      -11.744006   1.000000
    6      -11.744003   1.000000
    7      -11.655213   1.000000
    8      -11.655211   1.000000
    9      -11.655205   1.000000
   10      -11.655203   1.000000
   11       -8.975004   1.000000
   12       -8.974917   1.000000
   13        3.776892   1.000000
   14        3.776971   1.000000
   15        4.158458   1.013439
   16        4.158523   1.012213
   17        4.158549   1.007635
   18        4.158928   0.982037
   19        4.543076  -0.000000
   20        4.543123  -0.000000
   21        8.439611   0.000000
 
  0.1020408E-01  0.0000000E+00  0.1020408E-01  0.0000000E+00
    1      -12.573039   1.000000
    2      -12.573031   1.000000
    3      -12.572520   1.000000
    4      -12.572511   1.000000
    5      -11.744033   1.000000
    6      -11.744030   1.000000
    7      -11.655537   1.000000
    8      -11.655530   1.000000
    9      -11.654913   1.000000
   10      -11.654907   1.000000
   11       -8.973436   1.000000
   12       -8.973349   1.000000
   13        3.760292   1.000000
   14        3.760390   1.000000
   15        4.109627   1.011792
   16        4.109688   1.013497
   17        4.153355   1.025387
   18        4.153390   1.020698
   19        4.604330  -0.000000
   20        4.604363  -0.000000
   21        8.428168   0.000000
 
  0.2040816E-01  0.0000000E+00  0.2040816E-01  0.0000000E+00
    1      -12.573345   1.000000
    2      -12.573336   1.000000
    3      -12.572260   1.000000
    4      -12.572252   1.000000
    5      -11.744110   1.000000
    6      -11.744107   1.000000
    7      -11.655884   1.000000
    8      -11.655877   1.000000
    9      -11.654639   1.000000
   10      -11.654634   1.000000
   11       -8.968717   1.000000
   12       -8.968630   1.000000
   13        3.706933   1.000000
   14        3.707045   1.000000
   15        4.022986   1.000002
   16        4.023532   1.000004
   17        4.138837   1.035149
   18        4.139249   1.035452
   19        4.731914  -0.000000
   20        4.731945  -0.000000
   21        8.632665   0.000000
 
  0.3061224E-01  0.0000000E+00  0.3061224E-01  0.0000000E+00
    1      -12.573710   1.000000
    2      -12.573700   1.000000
    3      -12.571973   1.000000
    4      -12.571965   1.000000
    5      -11.744242   1.000000
    6      -11.744238   1.000000
    7      -11.656249   1.000000
    8      -11.656241   1.000000
    9      -11.654391   1.000000
   10      -11.654385   1.000000
   11       -8.960852   1.000000
   12       -8.960765   1.000000
   13        3.610506   1.000000
   14        3.610661   1.000000
   15        3.946130   1.000000
   16        3.946455   1.000000
   17        4.114777   1.015396
   18        4.115116   1.019574
   19        4.884724  -0.000000
   20        4.884836  -0.000000
   21        8.744410   0.000000
 
  0.4081633E-01  0.0000000E+00  0.4081633E-01  0.0000000E+00
    1      -12.574150   1.000000
    2      -12.574140   1.000000
    3      -12.571652   1.000000
    4      -12.571644   1.000000
    5      -11.744435   1.000000
    6      -11.744432   1.000000
    7      -11.656634   1.000000
    8      -11.656626   1.000000
    9      -11.654178   1.000000
   10      -11.654172   1.000000
   11       -8.949857   1.000000
   12       -8.949770   1.000000
   13        3.480000   1.000000
   14        3.480210   1.000000
   15        3.886406   1.000000
   16        3.886705   1.000000
   17        4.081879   1.001586
   18        4.081919   1.001769
   19        5.046543  -0.000000
   20        5.046582  -0.000000
   21        8.466607   0.000000
 
  0.5102041E-01  0.0000000E+00  0.5102041E-01  0.0000000E+00
    1      -12.574679   1.000000
    2      -12.574669   1.000000
    3      -12.571286   1.000000
    4      -12.571277   1.000000
    5      -11.744702   1.000000
    6      -11.744699   1.000000
    7      -11.657027   1.000000
    8      -11.657019   1.000000
    9      -11.653987   1.000000
   10      -11.653982   1.000000
   11       -8.935749   1.000000
   12       -8.935662   1.000000
   13        3.330508   1.000000
   14        3.330742   1.000000
   15        3.834261   1.000000
   16        3.834523   1.000000
   17        4.040458   1.000020
   18        4.040474   1.000027
   19        5.212173  -0.000000
   20        5.212216  -0.000000
   21        8.838617   0.000000
 
  0.6122449E-01  0.0000000E+00  0.6122449E-01  0.0000000E+00
    1      -12.575287   1.000000
    2      -12.575276   1.000000
    3      -12.570853   1.000000
    4      -12.570844   1.000000
    5      -11.745014   1.000000
    6      -11.745010   1.000000
    7      -11.657408   1.000000
    8      -11.657400   1.000000
    9      -11.653813   1.000000
   10      -11.653807   1.000000
   11       -8.918548   1.000000
   12       -8.918461   1.000000
   13        3.171622   1.000000
   14        3.171871   1.000000
   15        3.782670   1.000000
   16        3.782905   1.000000
   17        3.991214   1.000000
   18        3.991589   1.000000
   19        5.379371  -0.000000
   20        5.379408  -0.000000
   21        8.401075   0.000000
 
  0.7142857E-01  0.0000000E+00  0.7142857E-01  0.0000000E+00
    1      -12.575996   1.000000
    2      -12.575985   1.000000
    3      -12.570367   1.000000
    4      -12.570358   1.000000
    5      -11.745411   1.000000
    6      -11.745407   1.000000
    7      -11.657778   1.000000
    8      -11.657770   1.000000
    9      -11.653660   1.000000
   10      -11.653654   1.000000
   11       -8.898285   1.000000
   12       -8.898199   1.000000
   13        3.008024   1.000000
   14        3.008281   1.000000
   15        3.728587   1.000000
   16        3.728803   1.000000
   17        3.935278   1.000000
   18        3.935644   1.000000
   19        5.546794  -0.000000
   20        5.546884  -0.000000
   21        8.470240   0.000000
 
  0.8163265E-01  0.0000000E+00  0.8163265E-01  0.0000000E+00
    1      -12.576788   1.000000
    2      -12.576777   1.000000
    3      -12.569819   1.000000
    4      -12.569810   1.000000
    5      -11.745870   1.000000
    6      -11.745866   1.000000
    7      -11.658119   1.000000
    8      -11.658111   1.000000
    9      -11.653522   1.000000
   10      -11.653516   1.000000
   11       -8.874999   1.000000
   12       -8.874912   1.000000
   13        2.842003   1.000000
   14        2.842262   1.000000
   15        3.670944   1.000000
   16        3.671151   1.000000
   17        3.873284   1.000000
   18        3.873641   1.000000
   19        5.713577   0.000000
   20        5.713667   0.000000
   21        8.298282   0.000000
 
  0.9183673E-01  0.0000000E+00  0.9183673E-01  0.0000000E+00
    1      -12.577667   1.000000
    2      -12.577656   1.000000
    3      -12.569205   1.000000
    4      -12.569197   1.000000
    5      -11.746396   1.000000
    6      -11.746391   1.000000
    7      -11.658414   1.000000