       N       E                     dE             d eps       ncg     rms          ort
DAV:   1     0.226119655987E+03    0.22612E+03   -0.64760E+03  5880   0.159E+03
DAV:   2     0.928172579765E+02   -0.13330E+03   -0.13037E+03  5880   0.453E+02
DAV:   3     0.513034847272E+02   -0.41514E+02   -0.40244E+02  5880   0.279E+02
DAV:   4     0.325035468877E+02   -0.18800E+02   -0.18493E+02  5880   0.165E+02
DAV:   5     0.291882416008E+02   -0.33153E+01   -0.32672E+01  5880   0.640E+01
SDA:   6    -0.712483022981E+01   -0.36313E+02   -0.35837E+01  5880   0.896E+01 0.000E+00
DMP:   7    -0.775254263363E+01   -0.62771E+00   -0.26528E+01  5880   0.875E+01-0.553E+01
DMP:   8    -0.895216845391E+01   -0.11996E+01   -0.23035E+00  5880   0.864E+00-0.753E+00
DMP:   9    -0.910768482917E+01   -0.15552E+00   -0.27399E+00  5880   0.616E+00 0.180E+00
DMP:  10    -0.919858223642E+01   -0.90897E-01   -0.96843E-01  5880   0.334E+00-0.239E+00
DMP:  11    -0.926152177885E+01   -0.62940E-01   -0.24975E-01  5880   0.373E-01 0.659E-01
DMP:  12    -0.927126688759E+01   -0.97451E-02   -0.23774E-01  5880   0.659E-01-0.168E-01
DMP:  13    -0.928359855683E+01   -0.12332E-01   -0.44966E-02  5880   0.110E-01 0.701E-03
DMP:  14    -0.928725834990E+01   -0.36598E-02   -0.36140E-02  5880   0.659E-02 0.639E-02
DMP:  15    -0.928930556823E+01   -0.20472E-02   -0.26400E-02  5880   0.633E-02 0.711E-03
DMP:  16    -0.929114262435E+01   -0.18371E-02   -0.76207E-03  5880   0.117E-02 0.192E-02
DMP:  17    -0.929181077970E+01   -0.66816E-03   -0.49243E-03  5880   0.758E-03 0.124E-02
DMP:  18    -0.929212310450E+01   -0.31232E-03   -0.28126E-03  5880   0.610E-03 0.243E-03
DMP:  19    -0.929229919212E+01   -0.17609E-03   -0.75305E-04  5880   0.141E-03 0.123E-03
DMP:  20    -0.929235418533E+01   -0.54993E-04   -0.17396E-04  5880   0.206E-04 0.599E-04
DMP:  21    -0.929236427036E+01   -0.10085E-04   -0.13071E-04  5880   0.255E-04 0.187E-04
DMP:  22    -0.929237765230E+01   -0.13382E-04   -0.79834E-05  5880   0.166E-04 0.873E-05
DMP:  23    -0.929238607952E+01   -0.84272E-05   -0.29363E-05  5880   0.581E-05 0.400E-05
   1 F= -.92923861E+01 E0= -.92923918E+01  d E =0.172837E-04  mag=     0.0001    -0.0000    -0.0000
