 running on   54 total cores
 distrk:  each k-point on    9 cores,    6 groups
 distr:  one band on    3 cores,    3 groups
 using from now: INCAR     
 vasp.5.4.4.18Apr17-6-g9f103f2a35 (build Sep 01 2023 15:53:54) complex          
  
 POSCAR found type information on POSCAR  In As
 POSCAR found :  2 types and       2 ions
 scaLAPACK will be used

 ----------------------------------------------------------------------------- 
|                                                                             |
|           W    W    AA    RRRRR   N    N  II  N    N   GGGG   !!!           |
|           W    W   A  A   R    R  NN   N  II  NN   N  G    G  !!!           |
|           W    W  A    A  R    R  N N  N  II  N N  N  G       !!!           |
|           W WW W  AAAAAA  RRRRR   N  N N  II  N  N N  G  GGG   !            |
|           WW  WW  A    A  R   R   N   NN  II  N   NN  G    G                |
|           W    W  A    A  R    R  N    N  II  N    N   GGGG   !!!           |
|                                                                             |
|      For optimal performance we recommend to set                            |
|        NCORE= 4 - approx SQRT( number of cores)                             |
|      NCORE specifies how many cores store one orbital (NPAR=cpu/NCORE).     |
|      This setting can  greatly improve the performance of VASP for DFT.     |
|      The default,   NCORE=1            might be grossly inefficient         |
|      on modern multi-core architectures or massively parallel machines.     |
|      Do your own testing !!!!                                               |
|      Unfortunately you need to use the default for GW and RPA calculations. |
|      (for HF NCORE is supported but not extensively tested yet)             |
|                                                                             |
 ----------------------------------------------------------------------------- 


 ----------------------------------------------------------------------------- 
|                                                                             |
|           W    W    AA    RRRRR   N    N  II  N    N   GGGG   !!!           |
|           W    W   A  A   R    R  NN   N  II  NN   N  G    G  !!!           |
|           W    W  A    A  R    R  N N  N  II  N N  N  G       !!!           |
|           W WW W  AAAAAA  RRRRR   N  N N  II  N  N N  G  GGG   !            |
|           WW  WW  A    A  R   R   N   NN  II  N   NN  G    G                |
|           W    W  A    A  R    R  N    N  II  N    N   GGGG   !!!           |
|                                                                             |
|      You have enabled k-point parallelism (KPAR>1).                         |
|      This developmental code was originally  written by Paul Kent at ORNL,  |
|      and carefully double checked in Vienna.                                |
|      GW as well as linear response parallelism added by Martijn Marsman     |
|      and Georg Kresse.                                                      |
|      Carefully verify results versus KPAR=1.                                |
|      Report problems to Paul Kent and Vienna.                               |
|                                                                             |
 ----------------------------------------------------------------------------- 

 LDA part: xc-table for Pade appr. of Perdew

 ----------------------------------------------------------------------------- 
|                                                                             |
|           W    W    AA    RRRRR   N    N  II  N    N   GGGG   !!!           |
|           W    W   A  A   R    R  NN   N  II  NN   N  G    G  !!!           |
|           W    W  A    A  R    R  N N  N  II  N N  N  G       !!!           |
|           W WW W  AAAAAA  RRRRR   N  N N  II  N  N N  G  GGG   !            |
|           WW  WW  A    A  R   R   N   NN  II  N   NN  G    G                |
|           W    W  A    A  R    R  N    N  II  N    N   GGGG   !!!           |
|                                                                             |
|      Your generating k-point grid is not commensurate to the symmetry       |
|      of the lattice.  This can cause   slow convergence with respect        |
|      to k-points for HF type calculations                                   |
|      suggested SOLUTIONS:                                                   |
|       ) if not already the case, use automatic k-point generation           |
|       ) shift your grid to Gamma (G) (e.g. required for hex or fcc lattice) |
|                                                                             |
 ----------------------------------------------------------------------------- 

 POSCAR, INCAR and KPOINTS ok, starting setup
 FFT: planning ...
 WAVECAR not read
 entering main loop
       N       E                     dE             d eps       ncg     rms          ort
DAV:   1     0.226119655987E+03    0.22612E+03   -0.64760E+03  5880   0.159E+03
DAV:   2     0.928172579765E+02   -0.13330E+03   -0.13037E+03  5880   0.453E+02
DAV:   3     0.513034847272E+02   -0.41514E+02   -0.40244E+02  5880   0.279E+02
DAV:   4     0.325035468877E+02   -0.18800E+02   -0.18493E+02  5880   0.165E+02
DAV:   5     0.291882416008E+02   -0.33153E+01   -0.32672E+01  5880   0.640E+01
 gam= 0.000 g(H,U,f)=  0.882E+01 0.139E+00-0.305E-03 ort(H,U,f) = 0.000E+00 0.000E+00 0.000E+00
SDA:   6    -0.712483022981E+01   -0.36313E+02   -0.35837E+01  5880   0.896E+01 0.000E+00
 gam= 0.382 g(H,U,f)=  0.872E+01 0.231E-01 0.416E-02 ort(H,U,f) =-0.555E+01 0.105E-01 0.134E-02
DMP:   7    -0.775254263363E+01   -0.62771E+00   -0.26528E+01  5880   0.875E+01-0.553E+01
 gam= 0.382 g(H,U,f)=  0.816E+00 0.479E-01-0.877E-03 ort(H,U,f) =-0.789E+00 0.366E-01-0.875E-03
DMP:   8    -0.895216845391E+01   -0.11996E+01   -0.23035E+00  5880   0.864E+00-0.753E+00
 gam= 0.382 g(H,U,f)=  0.583E+00 0.331E-01-0.769E-16 ort(H,U,f) = 0.132E+00 0.477E-01-0.106E-15
DMP:   9    -0.910768482917E+01   -0.15552E+00   -0.27399E+00  5880   0.616E+00 0.180E+00
 gam= 0.382 g(H,U,f)=  0.319E+00 0.142E-01 0.135E-25 ort(H,U,f) =-0.266E+00 0.269E-01 0.290E-25
DMP:  10    -0.919858223642E+01   -0.90897E-01   -0.96843E-01  5880   0.334E+00-0.239E+00
 gam= 0.382 g(H,U,f)=  0.280E-01 0.924E-02 0.197E-19 ort(H,U,f) = 0.459E-01 0.200E-01 0.513E-19
DMP:  11    -0.926152177885E+01   -0.62940E-01   -0.24975E-01  5880   0.373E-01 0.659E-01
 gam= 0.382 g(H,U,f)=  0.599E-01 0.600E-02-0.108E-08 ort(H,U,f) =-0.304E-01 0.136E-01-0.258E-08
DMP:  12    -0.927126688759E+01   -0.97451E-02   -0.23774E-01  5880   0.659E-01-0.168E-01
 gam= 0.382 g(H,U,f)=  0.809E-02 0.290E-02-0.199E-04 ort(H,U,f) =-0.708E-02 0.783E-02-0.510E-04
DMP:  13    -0.928359855683E+01   -0.12332E-01   -0.44966E-02  5880   0.110E-01 0.701E-03
 gam= 0.382 g(H,U,f)=  0.495E-02 0.171E-02-0.661E-04 ort(H,U,f) = 0.168E-02 0.490E-02-0.191E-03
DMP:  14    -0.928725834990E+01   -0.36598E-02   -0.36140E-02  5880   0.659E-02 0.639E-02
 gam= 0.382 g(H,U,f)=  0.487E-02 0.139E-02 0.644E-04 ort(H,U,f) =-0.367E-02 0.417E-02 0.212E-03
DMP:  15    -0.928930556823E+01   -0.20472E-02   -0.26400E-02  5880   0.633E-02 0.711E-03
 gam= 0.382 g(H,U,f)=  0.478E-03 0.606E-03 0.890E-04 ort(H,U,f) =-0.266E-03 0.193E-02 0.257E-03
DMP:  16    -0.929114262435E+01   -0.18371E-02   -0.76207E-03  5880   0.117E-02 0.192E-02
 gam= 0.382 g(H,U,f)=  0.425E-03 0.355E-03-0.221E-04 ort(H,U,f) = 0.122E-03 0.119E-02-0.696E-04
DMP:  17    -0.929181077970E+01   -0.66816E-03   -0.49243E-03  5880   0.758E-03 0.124E-02
 gam= 0.382 g(H,U,f)=  0.454E-03 0.157E-03-0.238E-06 ort(H,U,f) =-0.303E-03 0.547E-03-0.781E-06
DMP:  18    -0.929212310450E+01   -0.31232E-03   -0.28126E-03  5880   0.610E-03 0.243E-03
 gam= 0.382 g(H,U,f)=  0.856E-04 0.575E-04-0.195E-05 ort(H,U,f) =-0.789E-04 0.209E-03-0.692E-05
DMP:  19    -0.929229919212E+01   -0.17609E-03   -0.75305E-04  5880   0.141E-03 0.123E-03
 gam= 0.382 g(H,U,f)=  0.846E-05 0.207E-04-0.852E-05 ort(H,U,f) = 0.146E-04 0.784E-04-0.331E-04
DMP:  20    -0.929235418533E+01   -0.54993E-04   -0.17396E-04  5880   0.206E-04 0.599E-04
 gam= 0.382 g(H,U,f)=  0.194E-04 0.753E-05-0.143E-05 ort(H,U,f) =-0.449E-05 0.294E-04-0.618E-05
DMP:  21    -0.929236427036E+01   -0.10085E-04   -0.13071E-04  5880   0.255E-04 0.187E-04
 gam= 0.382 g(H,U,f)=  0.124E-04 0.285E-05 0.133E-05 ort(H,U,f) =-0.830E-05 0.112E-04 0.588E-05
DMP:  22    -0.929237765230E+01   -0.13382E-04   -0.79834E-05  5880   0.166E-04 0.873E-05
 gam= 0.382 g(H,U,f)=  0.408E-05 0.105E-05 0.686E-06 ort(H,U,f) =-0.334E-05 0.426E-05 0.308E-05
DMP:  23    -0.929238607952E+01   -0.84272E-05   -0.29363E-05  5880   0.581E-05 0.400E-05
 final diagonalization
   1 F= -.92923861E+01 E0= -.92923918E+01  d E =0.172837E-04  mag=     0.0001    -0.0000    -0.0000
