    2    2    1    2
  0.2234237E+02  0.3983132E-09  0.3983132E-09  0.3983132E-09  0.5000000E-15
  1.000000000000000E-004
  CAR 
 unknown system                          
     28     16     54
 
  0.0000000E+00  0.0000000E+00  0.0000000E+00  0.4629630E-02
    1      -19.649134    -19.649131   1.000000   1.000000
    2      -19.649132    -19.649128   1.000000   1.000000
    3      -19.649132    -19.649128   1.000000   1.000000
    4      -19.613101    -19.613097   1.000000   1.000000
    5      -19.613101    -19.613097   1.000000   1.000000
    6      -19.394692    -19.394688   1.000000   1.000000
    7      -19.394690    -19.394686   1.000000   1.000000
    8      -19.394690    -19.394686   1.000000   1.000000
    9      -19.380428    -19.380424   1.000000   1.000000
   10      -19.380428    -19.380424   1.000000   1.000000
   11       -7.700277     -7.700278   1.000000   1.000000
   12        4.777968      4.777962   1.000000   1.000000
   13        4.777977      4.777971   1.000000   1.000000
   14        4.777977      4.777971   1.000000   1.000000
   15        5.336210      5.336220   0.000000   0.000000
   16        7.446617      7.446612   0.000000   0.000000
   17        7.446617      7.446616   0.000000   0.000000
   18        7.446619      7.446616   0.000000   0.000000
   19       11.627780     11.627781   0.000000   0.000000
   20       14.673085     14.673078   0.000000   0.000000
   21       14.673085     14.673078   0.000000   0.000000
   22       15.941188     15.941186   0.000000   0.000000
   23       15.941201     15.941199   0.000000   0.000000
   24       15.941202     15.941199   0.000000   0.000000
   25       19.057660     19.057661   0.000000   0.000000
   26       30.373631     30.373628   0.000000   0.000000
   27       30.373631     30.373636   0.000000   0.000000
   28       30.373639     30.373640   0.000000   0.000000
   29       31.296849     31.296833   0.000000   0.000000
   30       31.296871     31.296857   0.000000   0.000000
   31       31.296879     31.296861   0.000000   0.000000
   32       31.863781     31.863785   0.000000   0.000000
   33       31.863784     31.863786   0.000000   0.000000
   34       31.863786     31.863793   0.000000   0.000000
   35       32.895514     32.895494   0.000000   0.000000
   36       32.895548     32.895505   0.000000   0.000000
   37       39.923203     39.913315   0.000000   0.000000
   38       44.310863     44.222541   0.000000   0.000000
   39       44.787261     44.738000   0.000000   0.000000
   40       44.882245     44.801821   0.000000   0.000000
   41       45.024207     44.902239   0.000000   0.000000
   42       45.099530     45.146193   0.000000   0.000000
   43       45.380971     45.271413   0.000000   0.000000
   44       45.729202     45.406100   0.000000   0.000000
   45       46.133162     46.062757   0.000000   0.000000
   46       46.245185     46.113356   0.000000   0.000000
   47       46.376201     46.310267   0.000000   0.000000
   48       46.546043     46.539674   0.000000   0.000000
   49       46.659104     46.605857   0.000000   0.000000
   50       46.841984     46.640447   0.000000   0.000000
   51       47.101207     47.106413   0.000000   0.000000
   52       47.488112     47.369583   0.000000   0.000000
   53       47.658838     47.631506   0.000000   0.000000
   54       47.845562     47.738821   0.000000   0.000000
 
  0.1666667E+00  0.0000000E+00  0.0000000E+00  0.3703704E-01
    1      -19.661613    -19.661608   1.000000   1.000000
    2      -19.661610    -19.661606   1.000000   1.000000
    3      -19.644800    -19.644796   1.000000   1.000000
    4      -19.594922    -19.594917   1.000000   1.000000
    5      -19.594921    -19.594917   1.000000   1.000000
    6      -19.412215    -19.412210   1.000000   1.000000
    7      -19.412214    -19.412210   1.000000   1.000000
    8      -19.399741    -19.399737   1.000000   1.000000
    9      -19.365948    -19.365944   1.000000   1.000000
   10      -19.365946    -19.365942   1.000000   1.000000
   11       -7.365984     -7.365986   1.000000   1.000000
   12        1.811830      1.811829   1.000000   1.000000
   13        4.255350      4.255344   1.000000   1.000000
   14        4.255354      4.255348   1.000000   1.000000
   15        6.051179      6.051182   0.000000   0.000000
   16        8.141466      8.141462   0.000000   0.000000
   17        8.141477      8.141475   0.000000   0.000000
   18        9.137139      9.137139   0.000000   0.000000
   19       12.949163     12.949164   0.000000   0.000000
   20       13.519553     13.519547   0.000000   0.000000
   21       13.519553     13.519547   0.000000   0.000000
   22       15.159809     15.159808   0.000000   0.000000
   23       18.419939     18.419932   0.000000   0.000000
   24       18.419941     18.419939   0.000000   0.000000
   25       21.307760     21.307760   0.000000   0.000000
   26       25.972635     25.972629   0.000000   0.000000
   27       25.972636     25.972630   0.000000   0.000000
   28       26.117195     26.117195   0.000000   0.000000
   29       31.016552     31.016557   0.000000   0.000000
   30       31.016566     31.016558   0.000000   0.000000
   31       31.579138     31.579118   0.000000   0.000000
   32       32.652380     32.652377   0.000000   0.000000
   33       32.652386     32.652396   0.000000   0.000000
   34       35.045653     35.045565   0.000000   0.000000
   35       38.116283     38.114900   0.000000   0.000000
   36       38.121237     38.121126   0.000000   0.000000
   37       38.123359     38.125061   0.000000   0.000000
   38       39.182022     39.181179   0.000000   0.000000
   39       39.182305     39.184479   0.000000   0.000000
   40       41.669004     41.655975   0.000000   0.000000
   41       41.868069     41.867223   0.000000   0.000000
   42       41.902528     41.879621   0.000000   0.000000
   43       42.579883     42.584418   0.000000   0.000000
   44       42.597736     42.643000   0.000000   0.000000
   45       42.651277     42.676622   0.000000   0.000000
   46       42.740840     42.790344   0.000000   0.000000
   47       44.927712     44.896455   0.000000   0.000000
   48       45.829306     45.871678   0.000000   0.000000
   49       45.946696     45.966444   0.000000   0.000000
   50       46.131472     46.254728   0.000000   0.000000
   51       47.984697     47.546068   0.000000   0.000000
   52       48.199265     48.023770   0.000000   0.000000
   53       49.881989     48.751540   0.000000   0.000000
   54       50.820731     50.782646   0.000000   0.000000
 
  0.3333333E+00  0.0000000E+00  0.0000000E+00  0.3703704E-01
    1      -19.672041    -19.672037   1.000000   1.000000
    2      -19.672038    -19.672034   1.000000   1.000000
    3      -19.635491    -19.635487   1.000000   1.000000
    4      -19.575226    -19.575221   1.000000   1.000000
    5      -19.575225    -19.575220   1.000000   1.000000
    6      -19.426891    -19.426886   1.000000   1.000000
    7      -19.426890    -19.426885   1.000000   1.000000
    8      -19.410064    -19.410060   1.000000   1.000000
    9      -19.355162    -19.355158   1.000000   1.000000
   10      -19.355159    -19.355155   1.000000   1.000000
   11       -6.433905     -6.433906   1.000000   1.000000
   12       -1.117520     -1.117522   1.000000   1.000000
   13        3.600254      3.600248   1.000000   1.000000
   14        3.600254      3.600248   1.000000   1.000000
   15        5.535015      5.535018   0.000000   0.000000
   16        8.718895      8.718900   0.000000   0.000000
   17        8.718914      8.718904   0.000000   0.000000
   18       12.010058     12.010059   0.000000   0.000000
   19       13.031341     13.031341   0.000000   0.000000
   20       14.112173     14.112167   0.000000   0.000000
   21       14.112176     14.112172   0.000000   0.000000
   22       17.441925     17.441927   0.000000   0.000000
   23       21.046269     21.046263   0.000000   0.000000
   24       21.046270     21.046266   0.000000   0.000000
   25       22.187484     22.187480   0.000000   0.000000
   26       22.461538     22.461533   0.000000   0.000000
   27       22.461539     22.461536   0.000000   0.000000
   28       25.561132     25.561132   0.000000   0.000000
   29       31.440378     31.440378   0.000000   0.000000
   30       31.916011     31.916011   0.000000   0.000000
   31       31.916020     31.916014   0.000000   0.000000
   32       32.290414     32.290396   0.000000   0.000000
   33       32.852264     32.852265   0.000000   0.000000
   34       32.852277     32.852267   0.000000   0.000000
   35       33.466097     33.466094   0.000000   0.000000
   36       33.466098     33.466102   0.000000   0.000000
   37       36.416187     36.416202   0.000000   0.000000
   38       38.049674     38.049684   0.000000   0.000000
   39       38.944676     38.944703   0.000000   0.000000
   40       38.945487     38.944902   0.000000   0.000000
   41       39.292926     39.292898   0.000000   0.000000
   42       39.292961     39.294686   0.000000   0.000000
   43       39.733849     39.734243   0.000000   0.000000
   44       40.909599     40.908865   0.000000   0.000000
   45       44.095932     44.098337   0.000000   0.000000
   46       44.935152     44.942758   0.000000   0.000000
   47       45.023194     44.988771   0.000000   0.000000
   48       45.813072     45.822821   0.000000   0.000000
   49       45.830085     45.872003   0.000000   0.000000
   50       47.180124     47.188717   0.000000   0.000000
   51       47.237829     47.265234   0.000000   0.000000
   52       47.596812     47.547921   0.000000   0.000000
   53       48.769760     48.779076   0.000000   0.000000
   54       53.014647     53.053101   0.000000   0.000000
 
  0.5000000E+00  0.0000000E+00  0.0000000E+00  0.1851852E-01
    1      -19.674470    -19.674465   1.000000   1.000000
    2      -19.674467    -19.674463   1.000000   1.000000
    3      -19.630558    -19.630554   1.000000   1.000000
    4      -19.569752    -19.569747   1.000000   1.000000
    5      -19.569750    -19.569746   1.000000   1.000000
    6      -19.430209    -19.430204   1.000000   1.000000
    7      -19.430208    -19.430203   1.000000   1.000000
    8      -19.415407    -19.415402   1.000000   1.000000
    9      -19.352354    -19.352350   1.000000   1.000000
   10      -19.352351    -19.352347   1.000000   1.000000
   11       -5.599405     -5.599407   1.000000   1.000000
   12       -2.644343     -2.644346   1.000000   1.000000
   13        3.356741      3.356735   1.000000   1.000000
   14        3.356743      3.356736   1.000000   1.000000
   15        5.322218      5.322220   0.000000   0.000000
   16        8.715174      8.715179   0.000000   0.000000
   17        8.715197      8.715185   0.000000   0.000000
   18       12.219048     12.219047   0.000000   0.000000
   19       15.613673     15.613673   0.000000   0.000000
   20       16.110662     16.110667   0.000000   0.000000
   21       16.304125     16.304122   0.000000   0.000000
   22       16.304128     16.304125   0.000000   0.000000
   23       17.698517     17.698508   0.000000   0.000000
   24       17.698518     17.698512   0.000000   0.000000
   25       23.962932     23.962930   0.000000   0.000000
   26       26.284064     26.284059   0.000000   0.000000
   27       26.844699     26.844692   0.000000   0.000000
   28       26.844706     26.844703   0.000000   0.000000
   29       27.638808     27.638807   0.000000   0.000000
   30       27.638814     27.638809   0.000000   0.000000
   31       30.700410     30.700410   0.000000   0.000000
   32       31.276148     31.276146   0.000000   0.000000
   33       32.609071     32.609070   0.000000   0.000000
   34       32.609088     32.609079   0.000000   0.000000
   35       32.780163     32.780146   0.000000   0.000000
   36       34.047854     34.047855   0.000000   0.000000
   37       34.047862     34.047859   0.000000   0.000000
   38       37.657979     37.657941   0.000000   0.000000
   39       37.657998     37.657961   0.000000   0.000000
   40       37.811162     37.811134   0.000000   0.000000
   41       37.811169     37.811162   0.000000   0.000000
   42       38.483573     38.483511   0.000000   0.000000
   43       38.542840     38.542739   0.000000   0.000000
   44       39.519261     39.519175   0.000000   0.000000
   45       43.722179     43.720569   0.000000   0.000000
   46       45.721212     45.716606   0.000000   0.000000
   47       45.747688     45.739842   0.000000   0.000000
   48       46.376479     46.380894   0.000000   0.000000
   49       46.439627     46.416431   0.000000   0.000000
   50       47.616271     47.678247   0.000000   0.000000
   51       52.451488     52.419110   0.000000   0.000000
   52       53.066376     53.100832   0.000000   0.000000
   53       53.809432     54.130523   0.000000   0.000000
   54       54.501190     55.081045   0.000000   0.000000
 
  0.1666667E+00  0.1666667E+00  0.0000000E+00  0.2777778E-01
    1      -19.659062    -19.659058   1.000000   1.000000
    2      -19.659061    -19.659057   1.000000   1.000000
    3      -19.658911    -19.658907   1.000000   1.000000
    4      -19.596816    -19.596811   1.000000   1.000000
    5      -19.573968    -19.573964   1.000000   1.000000
    6      -19.447294    -19.447290   1.000000   1.000000
    7      -19.395383    -19.395378   1.000000   1.000000
    8      -19.379523    -19.379519   1.000000   1.000000
    9      -19.379522    -19.379517   1.000000   1.000000
   10      -19.363118    -19.363113   1.000000   1.000000
   11       -7.251567     -7.251568   1.000000   1.000000
   12        1.865742      1.865742   1.000000   1.000000
   13        3.493688      3.493682   1.000000   1.000000
   14        3.493693      3.493687   1.000000   1.000000
   15        6.552351      6.552349   0.000000   0.000000
   16        7.767660      7.767663   0.000000   0.000000
   17        9.301396      9.301394   0.000000   0.000000
   18        9.301399      9.301395   0.000000   0.000000
   19       12.038635     12.038631   0.000000   0.000000
   20       13.530055     13.530055   0.000000   0.000000
   21       15.148861     15.148854   0.000000   0.000000
   22       16.897160     16.897157   0.000000   0.000000
   23       16.897165     16.897163   0.000000   0.000000
   24       17.828724     17.828721   0.000000   0.000000
   25       22.719384     22.719386   0.000000   0.000000
   26       25.543598     25.543598   0.000000   0.000000
   27       25.543598     25.543605   0.000000   0.000000
   28       26.705251     26.705242   0.000000   0.000000
   29       26.906094     26.906096   0.000000   0.000000
   30       31.391204     31.391194   0.000000   0.000000
   31       31.391218     31.391231   0.000000   0.000000
   32       32.308595     32.308609   0.000000   0.000000
   33       35.057998     35.058216   0.000000   0.000000
   34       37.618059     37.620457   0.000000   0.000000
   35       37.687085     37.689864   0.000000   0.000000
   36       37.687490     37.693800   0.000000   0.000000
   37       38.018748     38.021352   0.000000   0.000000
   38       38.020821     38.024921   0.000000   0.000000
   39       38.390608     38.395055   0.000000   0.000000
   40       38.891089     38.895706   0.000000   0.000000
   41       41.576048     41.595842   0.000000   0.000000
   42       42.196813     42.223710   0.000000   0.000000
   43       42.216140     42.344121   0.000000   0.000000
   44       42.942789     43.021045   0.000000   0.000000
   45       43.607078     43.680103   0.000000   0.000000
   46       43.700381     43.861048   0.000000   0.000000
   47       44.536343     44.520925   0.000000   0.000000
   48       44.766858     44.557266   0.000000   0.000000
   49       45.093642     45.337829   0.000000   0.000000
   50       48.398717     48.312668   0.000000   0.000000
   51       48.708049     48.917878   0.000000   0.000000
   52       49.138476     49.729973   0.000000   0.000000
   53       49.912995     50.076493   0.000000   0.000000
   54       50.741796     51.309046   0.000000   0.000000
 
  0.3333333E+00  0.1666667E+00  0.0000000E+00  0.1111111E+00
    1      -19.679979    -19.679975   1.000000   1.000000
    2      -19.669624    -19.669620   1.000000   1.000000
    3      -19.638404    -19.638400   1.000000   1.000000
    4      -19.575494    -19.575490   1.000000   1.000000
    5      -19.547563    -19.547559   1.000000   1.000000
    6      -19.473497    -19.473492   1.000000   1.000000
    7      -19.418079    -19.418074   1.000000   1.000000
    8      -19.393091    -19.393087   1.000000   1.000000
    9      -19.361130    -19.361126   1.000000   1.000000
   10      -19.347137    -19.347133   1.000000   1.000000
   11       -6.498117     -6.498118   1.000000   1.000000
   12       -0.406646     -0.406647   1.000000   1.000000
   13        2.545629      2.545624   1.000000   1.000000
   14        2.873460      2.873454   1.000000   1.000000
   15        6.770149      6.770147   0.000000   0.000000
   16        8.103620      8.103621   0.000000   0.000000
   17        9.963746      9.963743   0.000000   0.000000
   18       10.206879     10.206877   0.000000   0.000000
   19       13.548948     13.548948   0.000000   0.000000
   20       14.824977     14.824976   0.000000   0.000000
   21       15.447727     15.447721   0.000000   0.000000
   22       17.166905     17.166905   0.000000   0.000000
   23       19.747077     19.747072   0.000000   0.000000
   24       21.020961     21.020955   0.000000   0.000000
   25       21.390412     21.390409   0.000000   0.000000
   26       21.548740     21.548736   0.000000   0.000000
   27       25.753051     25.753060   0.000000   0.000000
   28       26.565781     26.565780   0.000000   0.000000
   29       26.886564     26.886558   0.000000   0.000000
   30       28.332385     28.332378   0.000000   0.000000
   31       31.337610     31.337611   0.000000   0.000000
   32       32.123417     32.123410   0.000000   0.000000
   33       34.365344     34.365351   0.000000   0.000000
   34       34.429539     34.429540   0.000000   0.000000
   35       34.625350     34.625341   0.000000   0.000000
   36       35.719033     35.719403   0.000000   0.000000
   37       37.234725     37.234462   0.000000   0.000000
   38       37.522280     37.523067   0.000000   0.000000
   39       38.709487     38.706313   0.000000   0.000000
   40       39.222630     39.220636   0.000000   0.000000
   41       39.960955     39.972272   0.000000   0.000000
   42       40.046871     40.045573   0.000000   0.000000
   43       40.893180     40.885597   0.000000   0.000000
   44       41.852647     41.859130   0.000000   0.000000
   45       43.085445     43.066917   0.000000   0.000000
   46       44.075994     44.069311   0.000000   0.000000
   47       44.991819     45.010237   0.000000   0.000000
   48       46.495233     46.405484   0.000000   0.000000
   49       46.800104     46.824551   0.000000   0.000000
   50       47.058261     47.482749   0.000000   0.000000
   51       48.531617     48.478759   0.000000   0.000000
   52       48.993838     49.120224   0.000000   0.000000
   53       49.714396     49.888144   0.000000   0.000000
   54       51.231947     51.253906   0.000000   0.000000
 
  0.5000000E+00  0.1666667E+00  0.0000000E+00  0.1111111E+00
    1      -19.691433    -19.691430   1.000000   1.000000
    2      -19.677976    -19.677972   1.000000   1.000000
    3      -19.613770    -19.613766   1.000000   1.000000
    4      -19.555760    -19.555756   1.000000   1.000000
    5      -19.546953    -19.546949   1.000000   1.000000
    6      -19.467966    -19.467962   1.000000   1.000000
    7      -19.440847    -19.440842   1.000000   1.000000
    8      -19.420534    -19.420529   1.000000   1.000000
    9      -19.347800    -19.347795   1.000000   1.000000
   10      -19.334472    -19.334468   1.000000   1.000000
   11       -5.432252     -5.432253   1.000000   1.000000
   12       -2.413888     -2.413890   1.000000   1.000000
   13        1.730173      1.730169   1.000000   1.000000
   14        2.799397      2.799391   1.000000   1.000000
   15        6.654221      6.654221   0.000000   0.000000
   16        8.778590      8.778589   0.000000   0.000000
   17        9.940081      9.940079   0.000000   0.000000
   18       11.432672     11.432670   0.000000   0.000000
   19       14.337906     14.337905   0.000000   0.000000
   20       16.144185     16.144185   0.000000   0.000000
   21       16.346728     16.346725   0.000000   0.000000
   22       16.907536     16.907537   0.000000   0.000000
   23       18.227463     18.227456   0.000000   0.000000
   24       21.613558     21.613555   0.000000   0.000000
   25       23.277227     23.277224   0.000000   0.000000
   26       24.146870     24.146866   0.000000   0.000000
   27       25.543131     25.543125   0.000000   0.000000
   28       26.436226     26.436223   0.000000   0.000000
   29       27.673304     27.673298   0.000000   0.000000
   30       28.542028     28.542023   0.000000   0.000000
   31       28.941139     28.941138   0.000000   0.000000
   32       31.119020     31.119019   0.000000   0.000000
   33       31.190355     31.190352   0.000000   0.000000
   34       32.542150     32.542147   0.000000   0.000000
   35       32.799189     32.799181   0.000000   0.000000
   36       32.917862     32.917848   0.000000   0.000000
   37       34.221959     34.221963   0.000000   0.000000
   38       35.910256     35.910320   0.000000   0.000000
   39       37.465475     37.466008   0.000000   0.000000
   40       38.131468     38.131966   0.000000   0.000000
   41       38.910593     38.909738   0.000000   0.000000
   42       39.583440     39.583729   0.000000   0.000000
   43       41.630092     41.631153   0.000000   0.000000
   44       42.686008     42.689972   0.000000   0.000000
   45       42.794802     42.794263   0.000000   0.000000
   46       44.578717     44.609866   0.000000   0.000000
   47       44.926503     44.947839   0.000000   0.000000
   48       47.405936     47.456628   0.000000   0.000000
   49       49.008427     48.945404   0.000000   0.000000
   50       50.128890     50.199377   0.000000   0.000000
   51       50.419584     50.881778   0.000000   0.000000
   52       51.190914     51.154560   0.000000   0.000000
   53       51.913178     51.924890   0.000000   0.000000
   54       54.197191     53.345579   0.000000   0.000000
 
 -0.3333333E+00  0.1666667E+00  0.0000000E+00  0.1111111E+00
    1      -19.687923    -19.687919   1.000000   1.000000
    2      -19.681512    -19.681508   1.000000   1.000000
    3      -19.609495    -19.609491   1.000000   1.000000
    4      -19.568042    -19.568037   1.000000   1.000000
    5      -19.547581    -19.547576   1.000000   1.000000
    6      -19.454586    -19.454582   1.000000   1.000000
    7      -19.436989    -19.436985   1.000000   1.000000
    8      -19.430213    -19.430209   1.000000   1.000000
    9      -19.342777    -19.342773   1.000000   1.000000
   10      -19.339960    -19.339956   1.000000   1.000000
   11       -5.770031     -5.770031   1.000000   1.000000
   12       -1.868901     -1.868902   1.000000   1.000000
   13        1.515205      1.515201   1.000000   1.000000
   14        3.285051      3.285045   1.000000   1.000000
   15        6.795338      6.795340   0.000000   0.000000
   16        9.051285      9.051283   0.000000   0.000000
   17        9.390861      9.390860   0.000000   0.000000
   18       11.736177     11.736178   0.000000   0.000000
   19       13.481503     13.481497   0.000000   0.000000
   20       14.202242     14.202242   0.000000   0.000000
   21       16.177287     16.177285   0.000000   0.000000
   22       17.858298     17.858298   0.000000   0.000000
   23       19.810530     19.810525   0.000000   0.000000
   24       21.582363     21.582361   0.000000   0.000000
   25       21.789424     21.789419   0.000000   0.000000
   26       23.315731     23.315728   0.000000   0.000000
   27       26.063892     26.063890   0.000000   0.000000
   28       27.456495     27.456488   0.000000   0.000000
   29       28.046320     28.046320   0.000000   0.000000
   30       28.503069     28.503066   0.000000   0.000000
   31       29.343554     29.343552   0.000000   0.000000
   32       29.471868     29.471865   0.000000   0.000000
   33       32.220788     32.220787   0.000000   0.000000
   34       32.575926     32.575914   0.000000   0.000000
   35       32.988997     32.988992   0.000000   0.000000
   36       33.331155     33.331151   0.000000   0.000000
   37       35.229612     35.229643   0.000000   0.000000
   38       37.079839     37.079792   0.000000   0.000000
   39       38.317101     38.317430   0.000000   0.000000
   40       38.928117     38.927169   0.000000   0.000000
   41       39.347565     39.347622   0.000000   0.000000
   42       39.406692     39.406937   0.000000   0.000000
   43       41.614215     41.615658   0.000000   0.000000
   44       41.858066     41.859388   0.000000   0.000000
   45       42.019883     42.021141   0.000000   0.000000
   46       44.857427     44.819991   0.000000   0.000000
   47       44.979506     44.979477   0.000000   0.000000
   48       45.920947     45.966619   0.000000   0.000000
   49       46.468404     46.456401   0.000000   0.000000
   50       48.282468     48.284040   0.000000   0.000000
   51       51.048507     50.604432   0.000000   0.000000
   52       51.957736     51.834623   0.000000   0.000000
   53       52.998273     53.202942   0.000000   0.000000
   54       53.928235     54.302834   0.000000   0.000000
 
 -0.1666667E+00  0.1666667E+00  0.0000000E+00  0.5555556E-01
    1      -19.675922    -19.675918   1.000000   1.000000
    2      -19.671018    -19.671014   1.000000   1.000000
    3      -19.632418    -19.632414   1.000000   1.000000
    4      -19.585483    -19.585478   1.000000   1.000000
    5      -19.566712    -19.566708   1.000000   1.000000
    6      -19.441104    -19.441099   1.000000   1.000000
    7      -19.426004    -19.425999   1.000000   1.000000
    8      -19.396515    -19.396510   1.000000   1.000000
    9      -19.363352    -19.363347   1.000000   1.000000
   10      -19.348753    -19.348748   1.000000   1.000000
   11       -6.822277     -6.822278   1.000000   1.000000
   12        0.296498      0.296497   1.000000   1.000000
   13        2.269362      2.269357   1.000000   1.000000
   14        4.072888      4.072882   1.000000   1.000000
   15        6.971001      6.971003   0.000000   0.000000
   16        8.468361      8.468359   0.000000   0.000000
   17        8.752556      8.752554   0.000000   0.000000
   18       10.117490     10.117489   0.000000   0.000000
   19       12.483020     12.483014   0.000000   0.000000
   20       14.448390     14.448391   0.000000   0.000000
   21       14.495892     14.495890   0.000000   0.000000
   22       17.062495     17.062491   0.000000   0.000000
   23       18.211951     18.211949   0.000000   0.000000
   24       20.994301     20.994297   0.000000   0.000000
   25       21.788185     21.788181   0.000000   0.000000
   26       24.028961     24.028963   0.000000   0.000000
   27       25.580584     25.580586   0.000000   0.000000
   28       26.261305     26.261303   0.000000   0.000000
   29       26.744366     26.744358   0.000000   0.000000
   30       28.343753     28.343746   0.000000   0.000000
   31       31.710230     31.710221   0.000000   0.000000
   32       33.885537     33.885535   0.000000   0.000000
   33       34.806753     34.806581   0.000000   0.000000
   34       35.147093     35.147067   0.000000   0.000000
   35       35.709032     35.708695   0.000000   0.000000
   36       35.926154     35.926158   0.000000   0.000000
   37       38.276348     38.275991   0.000000   0.000000
   38       38.598084     38.597337   0.000000   0.000000
   39       39.050796     39.051196   0.000000   0.000000
   40       39.438031     39.431306   0.000000   0.000000
   41       39.625925     39.627026   0.000000   0.000000
   42       40.650198     40.649013   0.000000   0.000000
   43       41.517968     41.515744   0.000000   0.000000
   44       41.519878     41.530358   0.000000   0.000000
   45       42.213087     42.220530   0.000000   0.000000
   46       42.298406     42.309995   0.000000   0.000000
   47       44.271570     44.279346   0.000000   0.000000
   48       44.415966     44.357563   0.000000   0.000000
   49       46.864818     46.758479   0.000000   0.000000
   50       47.124220     47.134761   0.000000   0.000000
   51       47.689179     47.841618   0.000000   0.000000
   52       48.625760     48.830796   0.000000   0.000000
   53       49.535884     49.921730   0.000000   0.000000
   54       51.786484     51.895585   0.000000   0.000000
 
  0.3333333E+00  0.3333333E+00  0.0000000E+00  0.2777778E-01
    1      -19.676179    -19.676175   1.000000   1.000000
    2      -19.676178    -19.676174   1.000000   1.000000
    3      -19.644593    -19.644589   1.000000   1.000000
    4      -19.552748    -19.552744   1.000000   1.000000
    5      -19.524057    -19.524052   1.000000   1.000000
    6      -19.504953    -19.504948   1.000000   1.000000
    7      -19.436406    -19.436401   1.000000   1.000000
    8      -19.381424    -19.381420   1.000000   1.000000
    9      -19.351069    -19.351064   1.000000   1.000000
   10      -19.351067    -19.351063   1.000000   1.000000
   11       -5.930890     -5.930891   1.000000   1.000000
   12       -1.148332     -1.148332   1.000000   1.000000
   13        2.166122      2.166116   1.000000   1.000000
   14        2.166126      2.166120   1.000000   1.000000
   15        5.687983      5.687982   0.000000   0.000000
   16        7.019330      7.019330   0.000000   0.000000
   17       12.237056     12.237056   0.000000   0.000000