PROCAR lm decomposed
# of k-points:   16         # of bands:   54         # of ions:    2

 k-point     1 :    0.00000000 0.00000000 0.00000000     weight = 0.00462963

band     1 # energy  -19.64913417 # occ.  1.00000000
 
ion      s     py     pz     px    dxy    dyz    dz2    dxz  x2-y2    tot
    1  0.000  0.000  0.000  0.000  0.156  0.180  0.000  0.161  0.000  0.497
    2  0.000  0.000  0.000  0.000  0.156  0.180  0.000  0.161  0.000  0.497
tot    0.000  0.000  0.000  0.000  0.311  0.359  0.000  0.322  0.000  0.994
 
band     2 # energy  -19.64913224 # occ.  1.00000000
 
ion      s     py     pz     px    dxy    dyz    dz2    dxz  x2-y2    tot
    1  0.000  0.000  0.000  0.000  0.294  0.155  0.000  0.047  0.000  0.497
    2  0.000  0.000  0.000  0.000  0.294  0.155  0.000  0.047  0.000  0.497
tot    0.000  0.000  0.001  0.000  0.589  0.311  0.000  0.093  0.000  0.994
 
band     3 # energy  -19.64913212 # occ.  1.00000000
 
ion      s     py     pz     px    dxy    dyz    dz2    dxz  x2-y2    tot
    1  0.000  0.000  0.000  0.000  0.047  0.161  0.000  0.288  0.000  0.497
    2  0.000  0.000  0.000  0.000  0.047  0.161  0.000  0.288  0.000  0.497
tot    0.000  0.001  0.000  0.000  0.093  0.323  0.000  0.577  0.000  0.994
 
band     4 # energy  -19.61310121 # occ.  1.00000000
 
ion      s     py     pz     px    dxy    dyz    dz2    dxz  x2-y2    tot
    1  0.000  0.000  0.000  0.000  0.000  0.000  0.382  0.000  0.114  0.496
    2  0.000  0.000  0.000  0.000  0.000  0.000  0.382  0.000  0.114  0.496
tot    0.000  0.000  0.000  0.000  0.000  0.000  0.764  0.000  0.228  0.992
 
band     5 # energy  -19.61310102 # occ.  1.00000000
 
ion      s     py     pz     px    dxy    dyz    dz2    dxz  x2-y2    tot
    1  0.000  0.000  0.000  0.000  0.000  0.000  0.114  0.000  0.382  0.496
    2  0.000  0.000  0.000  0.000  0.000  0.000  0.114  0.000  0.382  0.496
tot    0.000  0.000  0.000  0.000  0.000  0.000  0.228  0.000  0.764  0.992
 
band     6 # energy  -19.39469223 # occ.  1.00000000
 
ion      s     py     pz     px    dxy    dyz    dz2    dxz  x2-y2    tot
    1  0.000  0.000  0.000  0.000  0.178  0.158  0.000  0.162  0.000  0.498
    2  0.000  0.000  0.000  0.000  0.178  0.158  0.000  0.162  0.000  0.498
tot    0.000  0.000  0.000  0.000  0.355  0.316  0.000  0.324  0.000  0.996
 
band     7 # energy  -19.39469034 # occ.  1.00000000
 
ion      s     py     pz     px    dxy    dyz    dz2    dxz  x2-y2    tot
    1  0.000  0.000  0.000  0.000  0.041  0.133  0.000  0.323  0.000  0.498
    2  0.000  0.000  0.000  0.000  0.041  0.133  0.000  0.323  0.000  0.498
tot    0.000  0.001  0.000  0.000  0.082  0.266  0.000  0.647  0.000  0.996
 
band     8 # energy  -19.39469027 # occ.  1.00000000
 
ion      s     py     pz     px    dxy    dyz    dz2    dxz  x2-y2    tot
    1  0.000  0.000  0.000  0.000  0.279  0.206  0.000  0.012  0.000  0.498
    2  0.000  0.000  0.000  0.000  0.279  0.206  0.000  0.012  0.000  0.498
tot    0.000  0.000  0.000  0.000  0.558  0.413  0.000  0.024  0.000  0.996
 
band     9 # energy  -19.38042832 # occ.  1.00000000
 
ion      s     py     pz     px    dxy    dyz    dz2    dxz  x2-y2    tot
    1  0.000  0.000  0.000  0.000  0.000  0.000  0.020  0.000  0.479  0.499
    2  0.000  0.000  0.000  0.000  0.000  0.000  0.020  0.000  0.479  0.499
tot    0.000  0.000  0.000  0.000  0.000  0.000  0.041  0.000  0.957  0.998
 
band    10 # energy  -19.38042820 # occ.  1.00000000
 
ion      s     py     pz     px    dxy    dyz    dz2    dxz  x2-y2    tot
    1  0.000  0.000  0.000  0.000  0.000  0.000  0.479  0.000  0.020  0.499
    2  0.000  0.000  0.000  0.000  0.000  0.000  0.479  0.000  0.020  0.499
tot    0.000  0.000  0.000  0.000  0.000  0.000  0.957  0.000  0.041  0.998
 
band    11 # energy   -7.70027696 # occ.  1.00000000
 
ion      s     py     pz     px    dxy    dyz    dz2    dxz  x2-y2    tot
    1  0.311  0.000  0.000  0.000  0.000  0.000  0.000  0.000  0.000  0.311
    2  0.311  0.000  0.000  0.000  0.000  0.000  0.000  0.000  0.000  0.311
tot    0.623  0.000  0.000  0.000  0.000  0.000  0.000  0.000  0.000  0.623
 
band    12 # energy    4.77796849 # occ.  1.00000000
 
ion      s     py     pz     px    dxy    dyz    dz2    dxz  x2-y2    tot
    1  0.000  0.108  0.107  0.106  0.012  0.012  0.000  0.012  0.000  0.357
    2  0.000  0.108  0.107  0.106  0.012  0.012  0.000  0.012  0.000  0.357
tot    0.000  0.216  0.215  0.211  0.025  0.024  0.000  0.025  0.000  0.715
 
band    13 # energy    4.77797735 # occ.  1.00000000
 
ion      s     py     pz     px    dxy    dyz    dz2    dxz  x2-y2    tot
    1  0.000  0.111  0.057  0.152  0.007  0.017  0.000  0.013  0.000  0.357
    2  0.000  0.111  0.057  0.152  0.007  0.017  0.000  0.013  0.000  0.357
tot    0.000  0.223  0.115  0.304  0.013  0.035  0.000  0.025  0.000  0.715
 
band    14 # energy    4.77797748 # occ.  1.00000000
 
ion      s     py     pz     px    dxy    dyz    dz2    dxz  x2-y2    tot
    1  0.000  0.102  0.156  0.063  0.018  0.007  0.000  0.012  0.000  0.357
    2  0.000  0.102  0.156  0.063  0.018  0.007  0.000  0.012  0.000  0.357
tot    0.000  0.203  0.312  0.126  0.036  0.014  0.000  0.023  0.000  0.715
 
band    15 # energy    5.33620976 # occ.  0.00000000
 
ion      s     py     pz     px    dxy    dyz    dz2    dxz  x2-y2    tot
    1  0.427  0.000  0.000  0.000  0.000  0.000  0.000  0.000  0.000  0.427
    2  0.427  0.000  0.000  0.000  0.000  0.000  0.000  0.000  0.000  0.427
tot    0.854  0.000  0.000  0.000  0.000  0.000  0.000  0.000  0.000  0.854
 
band    16 # energy    7.44661711 # occ.  0.00000000
 
ion      s     py     pz     px    dxy    dyz    dz2    dxz  x2-y2    tot
    1  0.000  0.142  0.046  0.031  0.010  0.007  0.000  0.030  0.000  0.266
    2  0.000  0.142  0.046  0.031  0.010  0.007  0.000  0.030  0.000  0.266
tot    0.000  0.283  0.093  0.062  0.020  0.013  0.000  0.061  0.000  0.532
 
band    17 # energy    7.44661734 # occ.  0.00000000
 
ion      s     py     pz     px    dxy    dyz    dz2    dxz  x2-y2    tot
    1  0.000  0.066  0.028  0.125  0.006  0.027  0.000  0.014  0.000  0.266
    2  0.000  0.066  0.028  0.125  0.006  0.027  0.000  0.014  0.000  0.266
tot    0.000  0.131  0.057  0.250  0.012  0.054  0.000  0.028  0.000  0.532
 
band    18 # energy    7.44661943 # occ.  0.00000000
 
ion      s     py     pz     px    dxy    dyz    dz2    dxz  x2-y2    tot
    1  0.000  0.012  0.144  0.063  0.031  0.013  0.000  0.003  0.000  0.266
    2  0.000  0.012  0.144  0.063  0.031  0.013  0.000  0.003  0.000  0.266
tot    0.000  0.024  0.288  0.126  0.062  0.027  0.000  0.005  0.000  0.532
 
band    19 # energy   11.62778023 # occ.  0.00000000
 
ion      s     py     pz     px    dxy    dyz    dz2    dxz  x2-y2    tot
    1  0.098  0.000  0.000  0.000  0.000  0.000  0.000  0.000  0.000  0.098
    2  0.098  0.000  0.000  0.000  0.000  0.000  0.000  0.000  0.000  0.098
tot    0.195  0.000  0.000  0.000  0.000  0.000  0.000  0.000  0.000  0.195
 
band    20 # energy   14.67308492 # occ.  0.00000000
 
ion      s     py     pz     px    dxy    dyz    dz2    dxz  x2-y2    tot
    1  0.000  0.000  0.000  0.000  0.000  0.000  0.056  0.000  0.169  0.225
    2  0.000  0.000  0.000  0.000  0.000  0.000  0.056  0.000  0.169  0.225
tot    0.000  0.000  0.000  0.000  0.000  0.000  0.112  0.000  0.339  0.451
 
band    21 # energy   14.67308508 # occ.  0.00000000
 
ion      s     py     pz     px    dxy    dyz    dz2    dxz  x2-y2    tot
    1  0.000  0.000  0.000  0.000  0.000  0.000  0.169  0.000  0.056  0.225
    2  0.000  0.000  0.000  0.000  0.000  0.000  0.169  0.000  0.056  0.225
tot    0.000  0.000  0.000  0.000  0.000  0.000  0.339  0.000  0.112  0.451
 
band    22 # energy   15.94118795 # occ.  0.00000000
 
ion      s     py     pz     px    dxy    dyz    dz2    dxz  x2-y2    tot
    1  0.000  0.008  0.003  0.017  0.005  0.028  0.000  0.013  0.000  0.074
    2  0.000  0.008  0.003  0.017  0.005  0.028  0.000  0.013  0.000  0.074
tot    0.000  0.016  0.006  0.034  0.009  0.057  0.000  0.026  0.000  0.147
 
band    23 # energy   15.94120092 # occ.  0.00000000
 
ion      s     py     pz     px    dxy    dyz    dz2    dxz  x2-y2    tot
    1  0.000  0.002  0.023  0.002  0.039  0.004  0.000  0.004  0.000  0.074
    2  0.000  0.002  0.023  0.002  0.039  0.004  0.000  0.004  0.000  0.074
tot    0.000  0.005  0.046  0.004  0.077  0.007  0.000  0.008  0.000  0.147
 
band    24 # energy   15.94120180 # occ.  0.00000000
 
ion      s     py     pz     px    dxy    dyz    dz2    dxz  x2-y2    tot
    1  0.000  0.017  0.002  0.008  0.003  0.014  0.000  0.029  0.000  0.074
    2  0.000  0.017  0.002  0.008  0.003  0.014  0.000  0.029  0.000  0.074
tot    0.000  0.034  0.004  0.017  0.006  0.029  0.000  0.058  0.000  0.147
 
band    25 # energy   19.05766039 # occ.  0.00000000
 
ion      s     py     pz     px    dxy    dyz    dz2    dxz  x2-y2    tot
    1  0.028  0.000  0.000  0.000  0.000  0.000  0.000  0.000  0.000  0.028
    2  0.028  0.000  0.000  0.000  0.000  0.000  0.000  0.000  0.000  0.028
tot    0.055  0.000  0.000  0.000  0.000  0.000  0.000  0.000  0.000  0.055
 
band    26 # energy   30.37363073 # occ.  0.00000000
 
ion      s     py     pz     px    dxy    dyz    dz2    dxz  x2-y2    tot
    1  0.000  0.117  0.100  0.008  0.021  0.002  0.000  0.025  0.000  0.272
    2  0.000  0.117  0.100  0.008  0.021  0.002  0.000  0.025  0.000  0.272
tot    0.000  0.233  0.200  0.016  0.042  0.003  0.000  0.049  0.000  0.544
 
band    27 # energy   30.37363075 # occ.  0.00000000
 
ion      s     py     pz     px    dxy    dyz    dz2    dxz  x2-y2    tot
    1  0.000  0.050  0.020  0.155  0.004  0.033  0.000  0.011  0.000  0.272
    2  0.000  0.050  0.020  0.155  0.004  0.033  0.000  0.011  0.000  0.272
tot    0.000  0.099  0.039  0.311  0.008  0.066  0.000  0.021  0.000  0.544
 
band    28 # energy   30.37363877 # occ.  0.00000000
 
ion      s     py     pz     px    dxy    dyz    dz2    dxz  x2-y2    tot
    1  0.000  0.058  0.105  0.061  0.022  0.013  0.000  0.012  0.000  0.272
    2  0.000  0.058  0.105  0.061  0.022  0.013  0.000  0.012  0.000  0.272
tot    0.000  0.116  0.210  0.123  0.045  0.026  0.000  0.025  0.000  0.544
 
band    29 # energy   31.29684939 # occ.  0.00000000
 
ion      s     py     pz     px    dxy    dyz    dz2    dxz  x2-y2    tot
    1  0.000  0.000  0.000  0.000  0.000  0.000  0.000  0.000  0.000  0.000
    2  0.000  0.000  0.000  0.000  0.000  0.000  0.000  0.000  0.000  0.000
tot    0.000  0.000  0.000  0.000  0.000  0.000  0.000  0.000  0.000  0.000
 
band    30 # energy   31.29687082 # occ.  0.00000000
 
ion      s     py     pz     px    dxy    dyz    dz2    dxz  x2-y2    tot
    1  0.000  0.000  0.000  0.000  0.000  0.000  0.000  0.000  0.000  0.000
    2  0.000  0.000  0.000  0.000  0.000  0.000  0.000  0.000  0.000  0.000
tot    0.000  0.000  0.000  0.000  0.000  0.000  0.000  0.000  0.000  0.000
 
band    31 # energy   31.29687864 # occ.  0.00000000
 
ion      s     py     pz     px    dxy    dyz    dz2    dxz  x2-y2    tot
    1  0.000  0.000  0.000  0.000  0.000  0.000  0.000  0.000  0.000  0.000
    2  0.000  0.000  0.000  0.000  0.000  0.000  0.000  0.000  0.000  0.000
tot    0.000  0.000  0.000  0.000  0.000  0.000  0.000  0.000  0.000  0.000
 
band    32 # energy   31.86378110 # occ.  0.00000000
 
ion      s     py     pz     px    dxy    dyz    dz2    dxz  x2-y2    tot
    1  0.000  0.001  0.003  0.003  0.207  0.181  0.000  0.059  0.000  0.453
    2  0.000  0.001  0.003  0.003  0.207  0.181  0.000  0.059  0.000  0.453
tot    0.000  0.002  0.006  0.005  0.414  0.361  0.000  0.118  0.000  0.906
 
band    33 # energy   31.86378364 # occ.  0.00000000
 
ion      s     py     pz     px    dxy    dyz    dz2    dxz  x2-y2    tot
    1  0.000  0.002  0.002  0.003  0.119  0.213  0.000  0.114  0.000  0.453
    2  0.000  0.002  0.002  0.003  0.119  0.213  0.000  0.114  0.000  0.453
tot    0.000  0.003  0.004  0.006  0.238  0.427  0.000  0.229  0.000  0.906
 
band    34 # energy   31.86378567 # occ.  0.00000000
 
ion      s     py     pz     px    dxy    dyz    dz2    dxz  x2-y2    tot
    1  0.000  0.004  0.002  0.001  0.121  0.052  0.000  0.273  0.000  0.453
    2  0.000  0.004  0.002  0.001  0.121  0.053  0.000  0.273  0.000  0.453
tot    0.000  0.008  0.004  0.002  0.242  0.105  0.000  0.546  0.000  0.906
 
band    35 # energy   32.89551401 # occ.  0.00000000
 
ion      s     py     pz     px    dxy    dyz    dz2    dxz  x2-y2    tot
    1  0.000  0.000  0.000  0.000  0.000  0.000  0.073  0.000  0.248  0.321
    2  0.000  0.000  0.000  0.000  0.000  0.000  0.073  0.000  0.248  0.321
tot    0.000  0.000  0.000  0.000  0.000  0.000  0.146  0.000  0.496  0.642
 
band    36 # energy   32.89554781 # occ.  0.00000000
 
ion      s     py     pz     px    dxy    dyz    dz2    dxz  x2-y2    tot
    1  0.000  0.000  0.000  0.000  0.000  0.000  0.248  0.000  0.073  0.321
    2  0.000  0.000  0.000  0.000  0.000  0.000  0.248  0.000  0.073  0.322
tot    0.000  0.000  0.000  0.000  0.000  0.000  0.497  0.000  0.146  0.643
 
band    37 # energy   39.92320285 # occ.  0.00000000
 
ion      s     py     pz     px    dxy    dyz    dz2    dxz  x2-y2    tot
    1  0.145  0.000  0.000  0.000  0.000  0.000  0.000  0.000  0.000  0.146
    2  0.140  0.000  0.000  0.000  0.000  0.000  0.000  0.000  0.000  0.140
tot    0.285  0.000  0.000  0.000  0.000  0.000  0.000  0.000  0.000  0.286
 
band    38 # energy   44.31086316 # occ.  0.00000000
 
ion      s     py     pz     px    dxy    dyz    dz2    dxz  x2-y2    tot
    1  0.054  0.003  0.007  0.001  0.003  0.001  0.000  0.010  0.000  0.079
    2  0.047  0.002  0.000  0.001  0.001  0.001  0.001  0.005  0.002  0.061
tot    0.101  0.005  0.007  0.002  0.004  0.001  0.001  0.015  0.002  0.140
 
band    39 # energy   44.78726135 # occ.  0.00000000
 
ion      s     py     pz     px    dxy    dyz    dz2    dxz  x2-y2    tot
    1  0.001  0.011  0.001  0.011  0.001  0.060  0.001  0.044  0.000  0.131
    2  0.001  0.002  0.000  0.005  0.001  0.044  0.000  0.033  0.000  0.086
tot    0.003  0.013  0.002  0.016  0.002  0.103  0.002  0.077  0.000  0.217
 
band    40 # energy   44.88224459 # occ.  0.00000000
 
ion      s     py     pz     px    dxy    dyz    dz2    dxz  x2-y2    tot
    1  0.001  0.001  0.004  0.014  0.024  0.028  0.000  0.037  0.001  0.109
    2  0.002  0.019  0.005  0.001  0.036  0.017  0.000  0.075  0.001  0.156
tot    0.002  0.020  0.009  0.015  0.060  0.045  0.001  0.112  0.001  0.265
 
band    41 # energy   45.02420651 # occ.  0.00000000
 
ion      s     py     pz     px    dxy    dyz    dz2    dxz  x2-y2    tot
    1  0.000  0.024  0.014  0.007  0.012  0.004  0.003  0.023  0.003  0.091
    2  0.001  0.027  0.045  0.002  0.087  0.000  0.000  0.014  0.002  0.179
tot    0.001  0.052  0.060  0.008  0.099  0.005  0.003  0.037  0.005  0.270
 
band    42 # energy   45.09952997 # occ.  0.00000000
 
ion      s     py     pz     px    dxy    dyz    dz2    dxz  x2-y2    tot
    1  0.001  0.023  0.045  0.009  0.037  0.006  0.001  0.004  0.001  0.126
    2  0.001  0.028  0.042  0.009  0.011  0.002  0.000  0.024  0.002  0.120
tot    0.001  0.051  0.087  0.019  0.048  0.008  0.002  0.027  0.003  0.246
 
band    43 # energy   45.38097136 # occ.  0.00000000
 
ion      s     py     pz     px    dxy    dyz    dz2    dxz  x2-y2    tot
    1  0.002  0.019  0.000  0.010  0.094  0.007  0.001  0.011  0.002  0.147
    2  0.001  0.012  0.001  0.030  0.063  0.010  0.011  0.007  0.002  0.137
tot    0.003  0.031  0.001  0.040  0.157  0.017  0.012  0.018  0.004  0.283
 
band    44 # energy   45.72920233 # occ.  0.00000000
 
ion      s     py     pz     px    dxy    dyz    dz2    dxz  x2-y2    tot
    1  0.000  0.002  0.002  0.028  0.066  0.017  0.005  0.024  0.001  0.146
    2  0.000  0.000  0.007  0.038  0.032  0.018  0.004  0.022  0.007  0.128
tot    0.001  0.002  0.009  0.066  0.098  0.035  0.009  0.046  0.009  0.274
 
band    45 # energy   46.13316242 # occ.  0.00000000
 
ion      s     py     pz     px    dxy    dyz    dz2    dxz  x2-y2    tot
    1  0.000  0.012  0.005  0.004  0.087  0.000  0.001  0.062  0.000  0.172
    2  0.000  0.001  0.004  0.003  0.080  0.004  0.002  0.082  0.001  0.176
tot    0.000  0.012  0.009  0.007  0.167  0.005  0.004  0.144  0.001  0.348
 
band    46 # energy   46.24518537 # occ.  0.00000000
 
ion      s     py     pz     px    dxy    dyz    dz2    dxz  x2-y2    tot
    1  0.001  0.005  0.002  0.003  0.087  0.010  0.008  0.029  0.005  0.150
    2  0.000  0.006  0.023  0.003  0.052  0.020  0.005  0.027  0.011  0.148
tot    0.001  0.011  0.025  0.006  0.139  0.030  0.013  0.056  0.016  0.297
 
band    47 # energy   46.37620089 # occ.  0.00000000
 
ion      s     py     pz     px    dxy    dyz    dz2    dxz  x2-y2    tot
    1  0.000  0.008  0.013  0.008  0.043  0.234  0.000  0.089  0.000  0.395
    2  0.000  0.006  0.009  0.024  0.044  0.229  0.001  0.087  0.001  0.401
tot    0.000  0.014  0.022  0.032  0.087  0.463  0.001  0.176  0.001  0.796
 
band    48 # energy   46.54604299 # occ.  0.00000000
 
ion      s     py     pz     px    dxy    dyz    dz2    dxz  x2-y2    tot
    1  0.000  0.004  0.004  0.040  0.001  0.074  0.001  0.123  0.005  0.253
    2  0.000  0.031  0.001  0.009  0.004  0.105  0.016  0.089  0.013  0.269
tot    0.000  0.035  0.005  0.050  0.005  0.180  0.017  0.212  0.017  0.521
 
band    49 # energy   46.65910425 # occ.  0.00000000
 
ion      s     py     pz     px    dxy    dyz    dz2    dxz  x2-y2    tot
    1  0.003  0.010  0.002  0.019  0.012  0.012  0.035  0.025  0.040  0.159
    2  0.001  0.017  0.013  0.009  0.005  0.026  0.007  0.013  0.026  0.117
tot    0.004  0.027  0.015  0.028  0.016  0.038  0.043  0.038  0.066  0.276
 
band    50 # energy   46.84198430 # occ.  0.00000000
 
ion      s     py     pz     px    dxy    dyz    dz2    dxz  x2-y2    tot
    1  0.000  0.011  0.039  0.002  0.008  0.018  0.031  0.013  0.043  0.166
    2  0.000  0.013  0.030  0.010  0.007  0.008  0.065  0.008  0.019  0.159
tot    0.000  0.023  0.069  0.012  0.015  0.026  0.096  0.020  0.062  0.324
 
band    51 # energy   47.10120723 # occ.  0.00000000
 
ion      s     py     pz     px    dxy    dyz    dz2    dxz  x2-y2    tot
    1  0.000  0.014  0.000  0.006  0.014  0.000  0.120  0.007  0.011  0.173
    2  0.000  0.014  0.006  0.007  0.009  0.000  0.124  0.007  0.016  0.184
tot    0.000  0.028  0.007  0.013  0.023  0.001  0.244  0.014  0.028  0.358
 
band    52 # energy   47.48811245 # occ.  0.00000000
 
ion      s     py     pz     px    dxy    dyz    dz2    dxz  x2-y2    tot
    1  0.001  0.005  0.001  0.001  0.002  0.003  0.006  0.001  0.181  0.200
    2  0.000  0.002  0.000  0.003  0.001  0.002  0.032  0.004  0.127  0.170
tot    0.001  0.007  0.001  0.003  0.003  0.005  0.037  0.006  0.307  0.370
 
band    53 # energy   47.65883755 # occ.  0.00000000
 
ion      s     py     pz     px    dxy    dyz    dz2    dxz  x2-y2    tot
    1  0.000  0.000  0.000  0.003  0.003  0.005  0.145  0.001  0.153  0.309
    2  0.000  0.000  0.001  0.003  0.002  0.003  0.061  0.003  0.140  0.215
tot    0.001  0.001  0.001  0.006  0.005  0.008  0.206  0.003  0.293  0.524
 
band    54 # energy   47.84556239 # occ.  0.00000000
 
ion      s     py     pz     px    dxy    dyz    dz2    dxz  x2-y2    tot
    1  0.004  0.002  0.002  0.000  0.010  0.000  0.196  0.000  0.077  0.293
    2  0.005  0.000  0.002  0.002  0.007  0.000  0.122  0.001  0.054  0.194
tot    0.009  0.003  0.004  0.002  0.018  0.001  0.318  0.001  0.131  0.487
 

 k-point     2 :    0.16666667 0.00000000 0.00000000     weight = 0.03703704

band     1 # energy  -19.66161259 # occ.  1.00000000
 
ion      s     py     pz     px    dxy    dyz    dz2    dxz  x2-y2    tot
    1  0.000  0.000  0.000  0.000  0.071  0.293  0.014  0.076  0.043  0.497
    2  0.000  0.000  0.000  0.000  0.071  0.293  0.014  0.076  0.043  0.497
tot    0.000  0.000  0.000  0.001  0.142  0.586  0.027  0.152  0.085  0.993
 
band     2 # energy  -19.66161037 # occ.  1.00000000
 
ion      s     py     pz     px    dxy    dyz    dz2    dxz  x2-y2    tot
    1  0.000  0.000  0.000  0.000  0.222  0.000  0.043  0.217  0.014  0.497
    2  0.000  0.000  0.000  0.000  0.222  0.000  0.043  0.217  0.014  0.497
tot    0.000  0.000  0.000  0.000  0.444  0.001  0.085  0.435  0.027  0.993
 
band     3 # energy  -19.64479990 # occ.  1.00000000
 
ion      s     py     pz     px    dxy    dyz    dz2    dxz  x2-y2    tot
    1  0.000  0.000  0.000  0.000  0.165  0.165  0.000  0.165  0.000  0.497
    2  0.000  0.000  0.000  0.000  0.165  0.165  0.000  0.165  0.000  0.497
tot    0.000  0.000  0.000  0.000  0.331  0.331  0.000  0.331  0.000  0.994
 
band     4 # energy  -19.59492156 # occ.  1.00000000
 
ion      s     py     pz     px    dxy    dyz    dz2    dxz  x2-y2    tot
    1  0.000  0.000  0.000  0.000  0.030  0.000  0.348  0.027  0.091  0.496
    2  0.000  0.000  0.000  0.000  0.030  0.000  0.348  0.027  0.091  0.496
tot    0.000  0.000  0.000  0.000  0.061  0.000  0.696  0.054  0.182  0.993
 
band     5 # energy  -19.59492121 # occ.  1.00000000
 
ion      s     py     pz     px    dxy    dyz    dz2    dxz  x2-y2    tot
    1  0.000  0.000  0.000  0.000  0.008  0.038  0.091  0.011  0.348  0.496
    2  0.000  0.000  0.000  0.000  0.008  0.038  0.091  0.011  0.348  0.496
tot    0.000  0.000  0.000  0.000  0.016  0.076  0.182  0.023  0.696  0.993
 
band     6 # energy  -19.41221470 # occ.  1.00000000
 
ion      s     py     pz     px    dxy    dyz    dz2    dxz  x2-y2    tot
    1  0.000  0.000  0.000  0.000  0.031  0.146  0.058  0.044  0.218  0.498
    2  0.000  0.000  0.000  0.000  0.031  0.146  0.058  0.044  0.218  0.498
tot    0.000  0.000  0.000  0.000  0.062  0.293  0.117  0.089  0.436  0.996
 
band     7 # energy  -19.41221427 # occ.  1.00000000
 
ion      s     py     pz     px    dxy    dyz    dz2    dxz  x2-y2    tot
    1  0.000  0.000  0.000  0.000  0.117  0.002  0.218  0.104  0.058  0.498
    2  0.000  0.000  0.000  0.000  0.117  0.002  0.218  0.104  0.058  0.498
tot    0.000  0.000  0.000  0.000  0.233  0.003  0.436  0.207  0.117  0.996
 
band     8 # energy  -19.39974146 # occ.  1.00000000
 
ion      s     py     pz     px    dxy    dyz    dz2    dxz  x2-y2    tot
    1  0.000  0.000  0.000  0.000  0.166  0.166  0.000  0.166  0.000  0.498
    2  0.000  0.000  0.000  0.000  0.166  0.166  0.000  0.166  0.000  0.498
tot    0.000  0.000  0.000  0.000  0.332  0.332  0.000  0.332  0.000  0.996
 
band     9 # energy  -19.36594789 # occ.  1.00000000
 
ion      s     py     pz     px    dxy    dyz    dz2    dxz  x2-y2    tot
    1  0.000  0.000  0.000  0.000  0.052  0.182  0.063  0.041  0.160  0.499
    2  0.000  0.000  0.000  0.000  0.052  0.182  0.063  0.041  0.160  0.499
tot    0.000  0.000  0.000  0.000  0.104  0.364  0.127  0.082  0.320  0.998
 
band    10 # energy  -19.36594632 # occ.  1.00000000
 
ion      s     py     pz     px    dxy    dyz    dz2    dxz  x2-y2    tot
    1  0.000  0.000  0.000  0.000  0.131  0.002  0.160  0.142  0.063  0.499
    2  0.000  0.000  0.000  0.000  0.131  0.002  0.160  0.142  0.063  0.499
tot    0.000  0.000  0.000  0.000  0.263  0.003  0.320  0.284  0.127  0.998
 
band    11 # energy   -7.36598437 # occ.  1.00000000
 
ion      s     py     pz     px    dxy    dyz    dz2    dxz  x2-y2    tot
    1  0.308  0.002  0.002  0.002  0.000  0.000  0.000  0.000  0.000  0.314
    2  0.308  0.002  0.002  0.002  0.000  0.000  0.000  0.000  0.000  0.314
tot    0.617  0.004  0.004  0.004  0.000  0.000  0.000  0.000  0.000  0.629
 
band    12 # energy    1.81183033 # occ.  1.00000000
 
ion      s     py     pz     px    dxy    dyz    dz2    dxz  x2-y2    tot
    1  0.166  0.056  0.056  0.056  0.006  0.006  0.000  0.006  0.000  0.351
    2  0.166  0.056  0.056  0.056  0.006  0.006  0.000  0.006  0.000  0.351
tot    0.332  0.111  0.111  0.111  0.012  0.012  0.000  0.012  0.000  0.702
 
band    13 # energy    4.25534999 # occ.  1.00000000
 
ion      s     py     pz     px    dxy    dyz    dz2    dxz  x2-y2    tot
    1  0.000  0.052  0.052  0.208  0.005  0.019  0.000  0.005  0.001  0.341
    2  0.000  0.052  0.052  0.208  0.005  0.019  0.000  0.005  0.001  0.341
tot    0.000  0.104  0.104  0.416  0.009  0.038  0.000  0.009  0.001  0.682
 
band    14 # energy    4.25535380 # occ.  1.00000000
 
ion      s     py     pz     px    dxy    dyz    dz2    dxz  x2-y2    tot
    1  0.000  0.156  0.156  0.000  0.014  0.000  0.001  0.014  0.000  0.341
    2  0.000  0.156  0.156  0.000  0.014  0.000  0.001  0.014  0.000  0.341
tot    0.000  0.312  0.312  0.000  0.028  0.000  0.001  0.028  0.000  0.682
 
band    15 # energy    6.05117887 # occ.  0.00000000
 
ion      s     py     pz     px    dxy    dyz    dz2    dxz  x2-y2    tot
    1  0.207  0.034  0.034  0.034  0.006  0.006  0.000  0.006  0.000  0.329
    2  0.207  0.034  0.034  0.034  0.006  0.006  0.000  0.006  0.000  0.329
tot    0.414  0.069  0.069  0.069  0.012  0.012  0.000  0.012  0.000  0.657
 
band    16 # energy    8.14146554 # occ.  0.00000000
 
ion      s     py     pz     px    dxy    dyz    dz2    dxz  x2-y2    tot
    1  0.000  0.075  0.013  0.139  0.003  0.030  0.000  0.016  0.004  0.280
    2  0.000  0.075  0.013  0.139  0.003  0.030  0.000  0.016  0.004  0.280
tot    0.000  0.150  0.026  0.278  0.005  0.060  0.001  0.032  0.008  0.559
 
band    17 # energy    8.14147679 # occ.  0.00000000
 
ion      s     py     pz     px    dxy    dyz    dz2    dxz  x2-y2    tot
    1  0.000  0.076  0.138  0.012  0.030  0.003  0.004  0.016  0.000  0.280
    2  0.000  0.076  0.138  0.012  0.030  0.003  0.004  0.016  0.000  0.280
tot    0.000  0.153  0.277  0.024  0.060  0.005  0.008  0.033  0.001  0.560
 
band    18 # energy    9.13713932 # occ.  0.00000000
 
ion      s     py     pz     px    dxy    dyz    dz2    dxz  x2-y2    tot
    1  0.081  0.069  0.069  0.069  0.012  0.012  0.000  0.012  0.000  0.325
    2  0.081  0.069  0.069  0.069  0.012  0.012  0.000  0.012  0.000  0.325
tot    0.162  0.138  0.138  0.138  0.025  0.025  0.000  0.025  0.000  0.650
 
band    19 # energy   12.94916329 # occ.  0.00000000
 
ion      s     py     pz     px    dxy    dyz    dz2    dxz  x2-y2    tot
    1  0.056  0.022  0.022  0.022  0.002  0.002  0.000  0.002  0.000  0.127
    2  0.056  0.022  0.022  0.022  0.002  0.002  0.000  0.002  0.000  0.127
tot    0.112  0.043  0.043  0.043  0.004  0.004  0.000  0.004  0.000  0.255
 
band    20 # energy   13.51955276 # occ.  0.00000000
 
ion      s     py     pz     px    dxy    dyz    dz2    dxz  x2-y2    tot
    1  0.000  0.001  0.002  0.001  0.018  0.006  0.118  0.006  0.013  0.165
    2  0.000  0.001  0.002  0.001  0.018  0.006  0.118  0.006  0.013  0.165
tot    0.000  0.002  0.005  0.002  0.036  0.013  0.235  0.011  0.026  0.330
 
band    21 # energy   13.51955344 # occ.  0.00000000
 
ion      s     py     pz     px    dxy    dyz    dz2    dxz  x2-y2    tot
    1  0.000  0.002  0.000  0.002  0.002  0.014  0.013  0.014  0.118  0.165
    2  0.000  0.002  0.000  0.002  0.002  0.014  0.013  0.014  0.118  0.165
tot    0.000  0.004  0.001  0.004  0.004  0.028  0.026  0.029  0.235  0.330
 
band    22 # energy   15.15980915 # occ.  0.00000000
 
ion      s     py     pz     px    dxy    dyz    dz2    dxz  x2-y2    tot
    1  0.017  0.008  0.008  0.008  0.013  0.013  0.000  0.013  0.000  0.079
    2  0.017  0.008  0.008  0.008  0.013  0.013  0.000  0.013  0.000  0.079
tot    0.034  0.015  0.015  0.015  0.026  0.026  0.000  0.026  0.000  0.157
 
band    23 # energy   18.41993928 # occ.  0.00000000
 
ion      s     py     pz     px    dxy    dyz    dz2    dxz  x2-y2    tot
    1  0.000  0.002  0.012  0.010  0.013  0.011  0.068  0.002  0.023  0.139
    2  0.000  0.002  0.012  0.010  0.013  0.011  0.068  0.002  0.023  0.139
tot    0.000  0.004  0.024  0.020  0.025  0.021  0.135  0.004  0.046  0.278
 
band    24 # energy   18.41994140 # occ.  0.00000000
 
ion      s     py     pz     px    dxy    dyz    dz2    dxz  x2-y2    tot
    1  0.000  0.014  0.004  0.006  0.004  0.006  0.023  0.015  0.068  0.139
    2  0.000  0.014  0.004  0.006  0.004  0.006  0.023  0.015  0.068  0.139
tot    0.000  0.028  0.008  0.012  0.008  0.012  0.046  0.030  0.135  0.278
 
band    25 # energy   21.30775983 # occ.  0.00000000
 
ion      s     py     pz     px    dxy    dyz    dz2    dxz  x2-y2    tot
    1  0.015  0.005  0.005  0.005  0.006  0.006  0.000  0.006  0.000  0.047
    2  0.015  0.005  0.005  0.005  0.006  0.006  0.000  0.006  0.000  0.047
tot    0.030  0.010  0.010  0.010  0.012  0.012  0.000  0.012  0.000  0.094
 
band    26 # energy   25.97263502 # occ.  0.00000000
 
ion      s     py     pz     px    dxy    dyz    dz2    dxz  x2-y2    tot
    1  0.000  0.029  0.017  0.014  0.034  0.028  0.024  0.059  0.032  0.237
    2  0.000  0.029  0.017  0.014  0.034  0.028  0.024  0.059  0.032  0.237
tot    0.000  0.058  0.034  0.027  0.069  0.056  0.047  0.118  0.064  0.473
 
band    27 # energy   25.97263605 # occ.  0.00000000
 
ion      s     py     pz     px    dxy    dyz    dz2    dxz  x2-y2    tot
    1  0.000  0.011  0.023  0.026  0.046  0.053  0.032  0.022  0.024  0.237
    2  0.000  0.011  0.023  0.026  0.046  0.053  0.032  0.022  0.024  0.237
tot    0.000  0.021  0.046  0.052  0.093  0.106  0.064  0.044  0.047  0.473
 
band    28 # energy   26.11719547 # occ.  0.00000000
 
ion      s     py     pz     px    dxy    dyz    dz2    dxz  x2-y2    tot
    1  0.022  0.046  0.046  0.046  0.048  0.048  0.000  0.048  0.000  0.302
    2  0.022  0.045  0.046  0.046  0.048  0.048  0.000  0.048  0.000  0.302
tot    0.043  0.091  0.091  0.091  0.096  0.096  0.000  0.096  0.000  0.603
 
band    29 # energy   31.01655217 # occ.  0.00000000
 
ion      s     py     pz     px    dxy    dyz    dz2    dxz  x2-y2    tot
    1  0.000  0.027  0.025  0.098  0.008  0.030  0.001  0.008  0.003  0.198
    2  0.000  0.027  0.025  0.098  0.008  0.030  0.001  0.008  0.003  0.198