unknown system                          
   1.00000000000000     
     0.000000    2.816500    2.816500
     2.816500    0.000000    2.816500
     2.816500    2.816500    0.000000
   Ge
     2
Direct
  0.000000  0.000000  0.000000
  0.250000  0.250000  0.250000
 
   48   48   48
 0.84183989769E+03 0.81874032652E+03 0.75292733935E+03 0.65397091125E+03 0.53523825930E+03
 0.41109466572E+03 0.29446331652E+03 0.19517310876E+03 0.11905515426E+03 0.67598278827E+02
 0.38133992274E+02 0.24684561888E+02 0.19508607322E+02 0.16303540069E+02 0.13895049709E+02
 0.12074572615E+02 0.10662745122E+02 0.95418919103E+01 0.86449479588E+01 0.79348409461E+01
 0.73881151332E+01 0.69860977882E+01 0.67124815487E+01 0.65540990564E+01 0.65023126394E+01
 0.65540995268E+01 0.67124820816E+01 0.69860980113E+01 0.73881150613E+01 0.79348408540E+01
 0.86449479976E+01 0.95418919605E+01 0.10662745010E+02 0.12074572362E+02 0.13895049498E+02
 0.16303540022E+02 0.19508607388E+02 0.24684561951E+02 0.38133992305E+02 0.67598278894E+02
 0.11905515441E+03 0.19517310892E+03 0.29446331657E+03 0.41109466563E+03 0.53523825913E+03
 0.65397091113E+03 0.75292733933E+03 0.81874032655E+03 0.81874032652E+03 0.77414266334E+03
 0.69163119302E+03 0.58290315555E+03 0.46201201375E+03 0.34267064904E+03 0.23619867091E+03
 0.15028979476E+03 0.88438572205E+02 0.49886689433E+02 0.30146496529E+02 0.22208403815E+02
 0.18539443190E+02 0.15814017264E+02 0.13764623762E+02 0.12192686151E+02 0.10953489079E+02
 0.99604758650E+01 0.91665032759E+01 0.85445854496E+01 0.80753295176E+01 0.77417417929E+01
 0.75289270380E+01 0.74255779668E+01 0.74255602306E+01 0.75289049614E+01 0.77417543010E+01
 0.80753550153E+01 0.85445792306E+01 0.91664759678E+01 0.99604759329E+01 0.10953518711E+02
 0.12192696328E+02 0.13764598010E+02 0.15813999927E+02 0.18539463245E+02 0.22208424853E+02
 0.30146478110E+02 0.49886654618E+02 0.88438568765E+02 0.15028982092E+03 0.23619869060E+03
 0.34267065874E+03 0.46201203542E+03 0.58290317211E+03 0.69163115706E+03 0.77414258340E+03
 0.81874028308E+03 0.75292733935E+03 0.69163119302E+03 0.59960341544E+03 0.48945709133E+03
 0.37472104498E+03 0.26750458483E+03 0.17690777784E+03 0.10816435226E+03 0.62355596551E+02
 0.36660178262E+02 0.25233546579E+02 0.20719284846E+02 0.17722794297E+02 0.15465506591E+02
 0.13748802500E+02 0.12407353618E+02 0.11335179181E+02 0.10473462974E+02 0.97903772885E+01
 0.92653302684E+01 0.88807964806E+01 0.86204864281E+01 0.84706037068E+01 0.84217607726E+01
 0.84706035859E+01 0.86204861085E+01 0.88807959663E+01 0.92653297855E+01 0.97903772075E+01
 0.10473463501E+02 0.11335180072E+02 0.12407354258E+02 0.13748802410E+02 0.15465505944E+02
 0.17722793825E+02 0.20719285044E+02 0.25233546965E+02 0.36660177705E+02 0.62355594659E+02
 0.10816435044E+03 0.17690777851E+03 0.26750458893E+03 0.37472105025E+03 0.48945709343E+03
 0.59960341168E+03 0.69163118524E+03 0.75292733307E+03 0.77445651409E+03 0.65397091125E+03
 0.58290315555E+03 0.48945709133E+03 0.38595978784E+03 0.28444686444E+03 0.19479561359E+03
 0.12356050653E+03 0.73430269745E+02 0.43228059067E+02 0.28496827714E+02 0.22706783807E+02
 0.19516887384E+02 0.17097713558E+02 0.15266530429E+02 0.13848630497E+02 0.12722182414E+02
 0.11816667205E+02 0.11094538350E+02 0.10533514860E+02 0.10115482622E+02 0.98226780048E+01
 0.96385511793E+01 0.95501090328E+01 0.95501243258E+01 0.96385698812E+01 0.98226662439E+01
 0.10115459536E+02 0.10533519778E+02 0.11094562257E+02 0.11816668059E+02 0.12722158170E+02
 0.13848622796E+02 0.15266552181E+02 0.17097726394E+02 0.19516868884E+02 0.22706768041E+02
 0.28496847654E+02 0.43228088762E+02 0.73430265174E+02 0.12356047542E+03 0.19479559741E+03
 0.28444686899E+03 0.38595978412E+03 0.48945707978E+03 0.58290317264E+03 0.65397096028E+03
 0.69242384750E+03 0.69242381930E+03 0.53523825930E+03 0.46201201375E+03 0.37472104498E+03
 0.28444686444E+03 0.20109836538E+03 0.13199555102E+03 0.81062655079E+02 0.48582515992E+02
 0.31517183376E+02 0.24427676886E+02 0.21079083638E+02 0.18568569217E+02 0.16669861184E+02
 0.15211872600E+02 0.14063771922E+02 0.13145693101E+02 0.12414519375E+02 0.11845872189E+02
 0.11420862243E+02 0.11120082497E+02 0.10923623797E+02 0.10813900058E+02 0.10778774028E+02
 0.10813900316E+02 0.10923623899E+02 0.11120082074E+02 0.11420861442E+02 0.11845871649E+02
 0.12414519668E+02 0.13145694158E+02 0.14063773025E+02 0.15211872970E+02 0.16669860598E+02
 0.18568568104E+02 0.21079082685E+02 0.24427676580E+02 0.31517183809E+02 0.48582516890E+02
 0.81062655942E+02 0.13199555136E+03 0.20109836503E+03 0.28444686369E+03 0.37472104440E+03
 0.46201201371E+03 0.53523825972E+03 0.58411054348E+03 0.60129016288E+03 0.58411054306E+03
 0.41109466572E+03 0.34267064904E+03 0.26750458483E+03 0.19479561359E+03 0.13199555102E+03
 0.83784066075E+02 0.51590331749E+02 0.33670426294E+02 0.25760650228E+02 0.22294502932E+02
 0.19781308229E+02 0.17876780226E+02 0.16424954531E+02 0.15294496589E+02 0.14400624181E+02
 0.13696391660E+02 0.13155663577E+02 0.12758604243E+02 0.12483807858E+02 0.12307271428E+02
 0.12205525103E+02 0.12159843701E+02 0.12159832492E+02 0.12205511616E+02 0.12307280411E+02
 0.12483824428E+02 0.12758599333E+02 0.13155645224E+02 0.13696392100E+02 0.14400644210E+02
 0.15294503820E+02 0.16424938947E+02 0.17876770369E+02 0.19781319640E+02 0.22294509386E+02
 0.25760630107E+02 0.33670405059E+02 0.51590344752E+02 0.83784101135E+02 0.13199556620E+03
 0.19479560027E+03 0.26750457275E+03 0.34267065134E+03 0.41109466088E+03 0.46336574111E+03
 0.49170878686E+03 0.49170880088E+03 0.46336576332E+03 0.29446331652E+03 0.23619867091E+03
 0.17690777784E+03 0.12356050653E+03 0.81062655079E+02 0.51590331749E+02 0.34452031316E+02
 0.26500646077E+02 0.23066669980E+02 0.20647363286E+02 0.18807919972E+02 0.17415146604E+02
 0.16345752708E+02 0.15515741868E+02 0.14877338769E+02 0.14403983192E+02 0.14075320856E+02
 0.13867764574E+02 0.13752389783E+02 0.13698374610E+02 0.13678483221E+02 0.13674064284E+02
 0.13678484406E+02 0.13698375758E+02 0.13752389612E+02 0.13867762954E+02 0.14075318952E+02
 0.14403982469E+02 0.14877339784E+02 0.15515743873E+02 0.16345754351E+02 0.17415147053E+02
 0.18807919438E+02 0.20647362462E+02 0.23066669089E+02 0.26500644722E+02 0.34452029448E+02
 0.51590330589E+02 0.81062656467E+02 0.12356051088E+03 0.17690778278E+03 0.23619867254E+03
 0.29446331269E+03 0.34381052254E+03 0.37691742588E+03 0.38858141921E+03 0.37691743166E+03
 0.34381052986E+03 0.19517310876E+03 0.15028979476E+03 0.10816435226E+03 0.73430269745E+02
 0.48582515992E+02 0.33670426294E+02 0.26500646077E+02 0.23331509371E+02 0.21098801551E+02
 0.19396547781E+02 0.18117220898E+02 0.17152422385E+02 0.16424954531E+02 0.15890129563E+02
 0.15523119855E+02 0.15304112136E+02 0.15207697133E+02 0.15199621832E+02 0.15240400798E+02
 0.15292312552E+02 0.15326182699E+02 0.15326191318E+02 0.15292324069E+02 0.15240396404E+02
 0.15199609376E+02 0.15207696403E+02 0.15304120966E+02 0.15523119704E+02 0.15890119290E+02
 0.16424952291E+02 0.17152432948E+02 0.18117227334E+02 0.19396542908E+02 0.21098802040E+02
 0.23331523987E+02 0.26500652768E+02 0.33670403770E+02 0.48582482918E+02 0.73430265058E+02
 0.10816438191E+03 0.15028982442E+03 0.19517311063E+03 0.23681604046E+03 0.26899113387E+03
 0.28654113997E+03 0.28654114457E+03 0.26899114886E+03 0.23681605805E+03 0.11905515426E+03
 0.88438572205E+02 0.62355596551E+02 0.43228059067E+02 0.31517183376E+02 0.25760650228E+02
 0.23066669980E+02 0.21098801551E+02 0.19597987815E+02 0.18481650567E+02 0.17660487434E+02
 0.17069075896E+02 0.16669861184E+02 0.16442588760E+02 0.16369758722E+02 0.16425074072E+02
 0.16569137113E+02 0.16753116032E+02 0.16927294713E+02 0.17050008260E+02 0.17094046086E+02
 0.17050009871E+02 0.16927297211E+02 0.16753118058E+02 0.16569137309E+02 0.16425072146E+02
 0.16369755939E+02 0.16442587070E+02 0.16669861593E+02 0.17069077653E+02 0.17660488883E+02
 0.18481650784E+02 0.19597987392E+02 0.21098801758E+02 0.23066671215E+02 0.25760651382E+02
 0.31517182818E+02 0.43228056338E+02 0.62355593084E+02 0.88438570323E+02 0.11905515537E+03
 0.15023456801E+03 0.17724409745E+03 0.19560450617E+03 0.20211222001E+03 0.19560450347E+03
 0.17724409328E+03 0.15023456441E+03 0.67598278827E+02 0.49886689433E+02 0.36660178262E+02
 0.28496827714E+02 0.24427676886E+02 0.22294502932E+02 0.20647363286E+02 0.19396547781E+02
 0.18481650567E+02 0.17834040843E+02 0.17403261917E+02 0.17162098631E+02 0.17097713558E+02
 0.17197322391E+02 0.17435515054E+02 0.17768688561E+02 0.18138661481E+02 0.18487293712E+02
 0.18787805870E+02 0.18973313753E+02 0.18973310098E+02 0.18787802363E+02 0.18487299699E+02
 0.18138671295E+02 0.17768689559E+02 0.17435507341E+02 0.17197317850E+02 0.17097717028E+02
 0.17162102479E+02 0.17403260183E+02 0.17834036666E+02 0.18481646552E+02 0.19396541396E+02
 0.20647358040E+02 0.22294511709E+02 0.24427702504E+02 0.28496848528E+02 0.36660168440E+02
 0.49886652396E+02 0.67598247553E+02 0.87745625883E+02 0.10725216495E+03 0.12272830356E+03
 0.13129247744E+03 0.13129246361E+03 0.12272826996E+03 0.10725213432E+03 0.87745624060E+02
 0.38133992274E+02 0.30146496529E+02 0.25233546579E+02 0.22706783807E+02 0.21079083638E+02
 0.19781308229E+02 0.18807919972E+02 0.18117220898E+02 0.17660487434E+02 0.17403261917E+02
 0.17330448571E+02 0.17438804995E+02 0.17722794297E+02 0.18160487972E+02 0.18706132020E+02
 0.19297544099E+02 0.19961564518E+02 0.20678418646E+02 0.21253132730E+02 0.21474155533E+02
 0.21253133288E+02 0.20678420054E+02 0.19961566630E+02 0.19297545828E+02 0.18706131927E+02
 0.18160485639E+02 0.17722791119E+02 0.17438803330E+02 0.17330449773E+02 0.17403265039E+02
 0.17660489914E+02 0.18117220707E+02 0.18807917338E+02 0.19781305418E+02 0.21079083016E+02
 0.22706785861E+02 0.25233549569E+02 0.30146498057E+02 0.38133991364E+02 0.48721340984E+02
 0.60403774395E+02 0.71058305389E+02 0.78526277350E+02 0.81211351809E+02 0.78526276735E+02
 0.71058305407E+02 0.60403775920E+02 0.48721343184E+02 0.24684561888E+02 0.22208403815E+02
 0.20719284846E+02 0.19516887384E+02 0.18568569217E+02 0.17876780226E+02 0.17415146604E+02
 0.17152422385E+02 0.17069075896E+02 0.17162098631E+02 0.17438804995E+02 0.17903030568E+02
 0.18539443190E+02 0.19303433926E+02 0.20164021287E+02 0.21291234677E+02 0.22647082532E+02
 0.23905715533E+02 0.24667105156E+02 0.24667106315E+02 0.23905716942E+02 0.22647081575E+02
 0.21291232787E+02 0.20164021518E+02 0.19303435302E+02 0.18539441483E+02 0.17903025077E+02
 0.17438801262E+02 0.17162102777E+02 0.17069087758E+02 0.17152434851E+02 0.17415150237E+02
 0.17876769117E+02 0.18568546401E+02 0.19516866682E+02 0.20719283430E+02 0.22208427252E+02
 0.24684595729E+02 0.28707223016E+02 0.34028110793E+02 0.39725851795E+02 0.44540475635E+02
 0.47298370144E+02 0.47298383427E+02 0.44540507788E+02 0.39725882983E+02 0.34028119990E+02
 0.28707203443E+02 0.19508607322E+02 0.18539443190E+02 0.17722794297E+02 0.17097713558E+02
 0.16669861184E+02 0.16424954531E+02 0.16345752708E+02 0.16424954531E+02 0.16669861184E+02
 0.17097713558E+02 0.17722794297E+02 0.18539443190E+02 0.19508607322E+02 0.20640730097E+02
 0.22247892671E+02 0.24333912182E+02 0.26487101508E+02 0.28116491686E+02 0.28723873386E+02
 0.28116490387E+02 0.26487100547E+02 0.24333913114E+02 0.22247895298E+02 0.20640732505E+02
 0.19508607515E+02 0.18539440754E+02 0.17722790701E+02 0.17097711043E+02 0.16669861270E+02
 0.16424957157E+02 0.16345756370E+02 0.16424957157E+02 0.16669861270E+02 0.17097711043E+02
 0.17722790701E+02 0.18539440754E+02 0.19508607515E+02 0.20640732505E+02 0.22247895298E+02
 0.24333913114E+02 0.26487100547E+02 0.28116490387E+02 0.28723873386E+02 0.28116491686E+02
 0.26487101508E+02 0.24333912182E+02 0.22247892671E+02 0.20640730097E+02 0.16303540069E+02
 0.15814017264E+02 0.15465506591E+02 0.15266530429E+02 0.15211872600E+02 0.15294496589E+02
 0.15515741868E+02 0.15890129563E+02 0.16442588760E+02 0.17197322391E+02 0.18160487972E+02
 0.19303433926E+02 0.20640730097E+02 0.22598628221E+02 0.25315149762E+02 0.28382191190E+02
 0.31071020294E+02 0.32643567033E+02 0.32643566555E+02 0.31071019259E+02 0.28382190962E+02
 0.25315151976E+02 0.22598632735E+02 0.20640734396E+02 0.19303435561E+02 0.18160486526E+02
 0.17197317854E+02 0.16442580000E+02 0.15890117786E+02 0.15515734911E+02 0.15294504625E+02
 0.15211896090E+02 0.15266554585E+02 0.15465512204E+02 0.15813998308E+02 0.16303509416E+02
 0.16903176007E+02 0.17558808028E+02 0.18205009954E+02 0.18842064959E+02 0.19415374861E+02
 0.19764944985E+02 0.19764937275E+02 0.19415354554E+02 0.18842040252E+02 0.18204992823E+02
 0.17558809452E+02 0.16903198052E+02 0.13895049709E+02 0.13764623762E+02 0.13748802500E+02
 0.13848630497E+02 0.14063771922E+02 0.14400624181E+02 0.14877338769E+02 0.15523119855E+02
 0.16369758722E+02 0.17435515054E+02 0.18706132020E+02 0.20164021287E+02 0.22247892671E+02
 0.25315149762E+02 0.29079479816E+02 0.32779170992E+02 0.35493633201E+02 0.36490841050E+02
 0.35493630348E+02 0.32779167635E+02 0.29079478631E+02 0.25315151545E+02 0.22247895872E+02
 0.20164023543E+02 0.18706132125E+02 0.17435513589E+02 0.16369757030E+02 0.15523118675E+02
 0.14877337926E+02 0.14400623418E+02 0.14063771671E+02 0.13848631566E+02 0.13748804972E+02
 0.13764626376E+02 0.13895050616E+02 0.14129517687E+02 0.14442964217E+02 0.14796073693E+02
 0.15140709423E+02 0.15428366257E+02 0.15618583032E+02 0.15685014032E+02 0.15618580982E+02
 0.15428364081E+02 0.15140709251E+02 0.14796075975E+02 0.14442967330E+02 0.14129519334E+02
 0.12074572615E+02 0.12192686151E+02 0.12407353618E+02 0.12722182414E+02 0.13145693101E+02
 0.13696391660E+02 0.14403983192E+02 0.15304112136E+02 0.16425074072E+02 0.17768688561E+02
 0.19297544099E+02 0.21291234677E+02 0.24333912182E+02 0.28382191190E+02 0.32779170992E+02
 0.36536514543E+02 0.38703128260E+02 0.38703124707E+02 0.36536507631E+02 0.32779167059E+02
 0.28382191546E+02 0.24333913096E+02 0.21291233464E+02 0.19297542204E+02 0.17768689278E+02
 0.16425079787E+02 0.15304122738E+02 0.14403993566E+02 0.13696391588E+02 0.13145675599E+02
 0.12722155187E+02 0.12407337663E+02 0.12192697152E+02 0.12074603927E+02 0.12048022365E+02
 0.12101368839E+02 0.12214274738E+02 0.12358829752E+02 0.12503646384E+02 0.12619249163E+02
 0.12683100930E+02 0.12683101561E+02 0.12619253874E+02 0.12503659885E+02 0.12358850288E+02
 0.12214289756E+02 0.12101363169E+02 0.12047994563E+02 0.10662745122E+02 0.10953489079E+02
 0.11335179181E+02 0.11816667205E+02 0.12414519375E+02 0.13155663577E+02 0.14075320856E+02
 0.15207697133E+02 0.16569137113E+02 0.18138661481E+02 0.19961564518E+02 0.22647082532E+02
 0.26487101508E+02 0.31071020294E+02 0.35493633201E+02 0.38703128260E+02 0.39876216777E+02
 0.38703126569E+02 0.35493630563E+02 0.31071018079E+02 0.26487101081E+02 0.22647084194E+02
 0.19961566996E+02 0.18138662807E+02 0.16569136363E+02 0.15207695359E+02 0.14075320100E+02
 0.13155664815E+02 0.12414521444E+02 0.11816667885E+02 0.11335177416E+02 0.10953486110E+02
 0.10662743387E+02 0.10457089949E+02 0.10329115944E+02 0.10267124996E+02 0.10254818029E+02
 0.10273023663E+02 0.10302583793E+02 0.10327410454E+02 0.10336912444E+02 0.10327411923E+02
 0.10302585933E+02 0.10273025085E+02 0.10254817504E+02 0.10267122537E+02 0.10329113182E+02
 0.10457089036E+02 0.95418919103E+01 0.99604758650E+01 0.10473462974E+02 0.11094538350E+02
 0.11845872189E+02 0.12758604243E+02 0.13867764574E+02 0.15199621832E+02 0.16753116032E+02
 0.18487293712E+02 0.20678418646E+02 0.23905715533E+02 0.28116491686E+02 0.32643567033E+02
 0.36490841050E+02 0.38703124707E+02 0.38703126569E+02 0.36490843661E+02 0.32643566192E+02
 0.28116488961E+02 0.23905716756E+02 0.20678425508E+02 0.18487299882E+02 0.16753113066E+02
 0.15199608130E+02 0.13867748420E+02 0.12758598730E+02 0.11845885506E+02 0.11094565378E+02
 0.10473485577E+02 0.99604755554E+01 0.95418665710E+01 0.92091562106E+01 0.89550995330E+01
 0.87709160824E+01 0.86454108499E+01 0.85657725402E+01 0.85192356171E+01 0.84948201898E+01
 0.84846469611E+01 0.84846505573E+01 0.84948259902E+01 0.85192330196E+01 0.85657560154E+01
 0.86453886798E+01 0.87709066693E+01 0.89551149327E+01 0.92091882850E+01 0.86449479588E+01
 0.91665032759E+01 0.97903772885E+01 0.10533514860E+02 0.11420862243E+02 0.12483807858E+02
 0.13752389783E+02 0.15240400798E+02 0.16927294713E+02 0.18787805870E+02 0.21253132730E+02
 0.24667105156E+02 0.28723873386E+02 0.32643566555E+02 0.35493630348E+02 0.36536507631E+02
 0.35493630563E+02 0.32643566192E+02 0.28723871948E+02 0.24667103386E+02 0.21253132228E+02
 0.18787807563E+02 0.16927297671E+02 0.15240402743E+02 0.13752388997E+02 0.12483804758E+02
 0.11420859136E+02 0.10533514096E+02 0.97903794160E+01 0.91665066956E+01 0.86449502259E+01
 0.82147195667E+01 0.78675179217E+01 0.75950279825E+01 0.73877414723E+01 0.72353397978E+01
 0.71278949734E+01 0.70570774292E+01 0.70168958608E+01 0.70038748194E+01 0.70168950217E+01
 0.70570758404E+01 0.71278932453E+01 0.72353390926E+01 0.73877426740E+01 0.75950306874E+01
 0.78675203868E+01 0.82147199108E+01 0.79348409461E+01 0.85445854496E+01 0.92653302684E+01
 0.10115482622E+02 0.11120082497E+02 0.12307271428E+02 0.13698374610E+02 0.15292312552E+02
 0.17050008260E+02 0.18973313753E+02 0.21474155533E+02 0.24667106315E+02 0.28116490387E+02
 0.31071019259E+02 0.32779167635E+02 0.32779167059E+02 0.31071018079E+02 0.28116488961E+02
 0.24667103386E+02 0.21474150079E+02 0.18973308585E+02 0.17050009836E+02 0.15292324815E+02
 0.13698392357E+02 0.12307281354E+02 0.11120073467E+02 0.10115456886E+02 0.92653045108E+01
 0.85445787745E+01 0.79348591744E+01 0.74235877224E+01 0.70014778389E+01 0.66599643736E+01
 0.63898582812E+01 0.61814646546E+01 0.60255962845E+01 0.59146601839E+01 0.58432740119E+01
 0.58082679464E+01 0.58082635251E+01 0.58432647978E+01 0.59146557415E+01 0.60256046094E+01
 0.61814842215E+01 0.63898762189E+01 0.66599650942E+01 0.70014567437E+01 0.74235574447E+01
 0.73881151332E+01 0.80753295176E+01 0.88807964806E+01 0.98226780048E+01 0.10923623797E+02
 0.12205525103E+02 0.13678483221E+02 0.15326182699E+02 0.17094046086E+02 0.18973310098E+02
 0.21253133288E+02 0.23905716942E+02 0.26487100547E+02 0.28382190962E+02 0.29079478631E+02
 0.28382191546E+02 0.26487101081E+02 0.23905716756E+02 0.21253132228E+02 0.18973308585E+02
 0.17094044855E+02 0.15326182531E+02 0.13678484598E+02 0.12205527718E+02 0.10923626354E+02
 0.98226788400E+01 0.88807947847E+01 0.80753261546E+01 0.73881121955E+01 0.68060905971E+01
 0.63194918416E+01 0.59195581232E+01 0.55971051863E+01 0.53424275293E+01 0.51461878349E+01
 0.50005147946E+01 0.48997042367E+01 0.48403005397E+01 0.48206514082E+01 0.48403004097E+01
 0.48997046844E+01 0.50005161564E+01 0.51461892786E+01 0.53424276092E+01 0.55971032675E+01
 0.59195552165E+01 0.63194899782E+01 0.68060912613E+01 0.69860977882E+01 0.77417417929E+01
 0.86204864281E+01 0.96385511793E+01 0.10813900058E+02 0.12159843701E+02 0.13674064284E+02
 0.15326191318E+02 0.17050009871E+02 0.18787802363E+02 0.20678420054E+02 0.22647081575E+02
 0.24333913114E+02 0.25315151976E+02 0.25315151545E+02 0.24333913096E+02 0.22647084194E+02
 0.20678425508E+02 0.18787807563E+02 0.17050009836E+02 0.15326182531E+02 0.13674048848E+02
 0.12159831184E+02 0.10813902579E+02 0.96385723657E+01 0.86205142325E+01 0.77417555314E+01
 0.69860858483E+01 0.63409879048E+01 0.57967740258E+01 0.53447511918E+01 0.49758155461E+01
 0.46801908907E+01 0.44481890014E+01 0.42713206983E+01 0.41431218403E+01 0.40594095502E+01
 0.40179794486E+01 0.40179821263E+01 0.40594161881E+01 0.41431281875E+01 0.42713205775E+01
 0.44481781215E+01 0.46801724717E+01 0.49758018924E+01 0.53447558447E+01 0.57967985909E+01
 0.63410168701E+01 0.67124815487E+01 0.75289270380E+01 0.84706037068E+01 0.95501090328E+01
 0.10778774028E+02 0.12159832492E+02 0.13678484406E+02 0.15292324069E+02 0.16927297211E+02
 0.18487299699E+02 0.19961566630E+02 0.21291232787E+02 0.22247895298E+02 0.22598632735E+02
 0.22247895872E+02 0.21291233464E+02 0.19961566996E+02 0.18487299882E+02 0.16927297671E+02
 0.15292324815E+02 0.13678484598E+02 0.12159831184E+02 0.10778771485E+02 0.95501070208E+01
 0.84706040854E+01 0.75289299173E+01 0.67124849673E+01 0.60103827929E+01 0.54135921783E+01
 0.49137464753E+01 0.45019562632E+01 0.41684725396E+01 0.39033187446E+01 0.36973853925E+01
 0.35433575264E+01 0.34361361807E+01 0.33727220590E+01 0.33517118626E+01 0.33727224835E+01
 0.34361362622E+01 0.35433565976E+01 0.36973837385E+01 0.39033175869E+01 0.41684731084E+01
 0.45019586782E+01 0.49137493474E+01 0.54135934241E+01 0.60103812547E+01 0.65540990564E+01
 0.74255779668E+01 0.84217607726E+01 0.95501243258E+01 0.10813900316E+02 0.12205511616E+02
 0.13698375758E+02 0.15240396404E+02 0.16753118058E+02 0.18138671295E+02 0.19297545828E+02
 0.20164021518E+02 0.20640732505E+02 0.20640734396E+02 0.20164023543E+02 0.19297542204E+02
 0.18138662807E+02 0.16753113066E+02 0.15240402743E+02 0.13698392357E+02 0.12205527718E+02
 0.10813902579E+02 0.95501070208E+01 0.84217324588E+01 0.74255579951E+01 0.65541032095E+01
 0.57992374671E+01 0.51532220212E+01 0.46082804105E+01 0.41558367219E+01 0.37862597395E+01
 0.34894005754E+01 0.32556300630E+01 0.30768301274E+01 0.29469568454E+01 0.28620925348E+01
 0.28200989613E+01 0.28200982525E+01 0.28620898495E+01 0.29469517548E+01 0.30768251279E+01
 0.32556313566E+01 0.34894129690E+01 0.37862785585E+01 0.41558471369E+01 0.46082695685E+01
 0.51531935275E+01 0.57992113512E+01 0.65023126394E+01 0.74255602306E+01 0.84706035859E+01
 0.96385698812E+01 0.10923623899E+02 0.12307280411E+02 0.13752389612E+02 0.15199609376E+02
 0.16569137309E+02 0.17768689559E+02 0.18706131927E+02 0.19303435302E+02 0.19508607515E+02
 0.19303435561E+02 0.18706132125E+02 0.17768689278E+02 0.16569136363E+02 0.15199608130E+02
 0.13752388997E+02 0.12307281354E+02 0.10923626354E+02 0.96385723657E+01 0.84706040854E+01
 0.74255579951E+01 0.65023091190E+01 0.56965623988E+01 0.50025784666E+01 0.44134924840E+01
 0.39211169447E+01 0.35159587221E+01 0.31877762954E+01 0.29265457568E+01 0.27234462029E+01
 0.25715202797E+01 0.24658785214E+01 0.24035095577E+01 0.23828731186E+01 0.24035092884E+01
 0.24658783148E+01 0.25715205743E+01 0.27234471863E+01 0.29265470441E+01 0.31877769245E+01
 0.35159577507E+01 0.39211144405E+01 0.44134899671E+01 0.50025779672E+01 0.56965646478E+01
 0.65540995268E+01 0.75289049614E+01 0.86204861085E+01 0.98226662439E+01 0.11120082074E+02
 0.12483824428E+02 0.13867762954E+02 0.15207696403E+02 0.16425072146E+02 0.17435507341E+02
 0.18160485639E+02 0.18539441483E+02 0.18539440754E+02 0.18160486526E+02 0.17435513589E+02
 0.16425079787E+02 0.15207695359E+02 0.13867748420E+02 0.12483804758E+02 0.11120073467E+02
 0.98226788400E+01 0.86205142325E+01 0.75289299173E+01 0.65541032095E+01 0.56965623988E+01
 0.49533183181E+01 0.43188332525E+01 0.37854293525E+01 0.33437204221E+01 0.29833515089E+01
 0.26939718289E+01 0.24661762736E+01 0.22921799337E+01 0.21661220685E+01 0.20840228986E+01
 0.20435133171E+01 0.20435131784E+01 0.20840232623E+01 0.21661247962E+01 0.22921855821E+01
 0.24661807385E+01 0.26939675549E+01 0.29833357347E+01 0.33437023362E+01 0.37854251937E+01
 0.43188511496E+01 0.49533482937E+01 0.56965831098E+01 0.67124820816E+01 0.77417543010E+01
 0.88807959663E+01 0.10115459536E+02 0.11420861442E+02 0.12758599333E+02 0.14075318952E+02
 0.15304120966E+02 0.16369755939E+02 0.17197317850E+02 0.17722791119E+02 0.17903025077E+02
 0.17722790701E+02 0.17197317854E+02 0.16369757030E+02 0.15304122738E+02 0.14075320100E+02
 0.12758598730E+02 0.11420859136E+02 0.10115456886E+02 0.88807947847E+01 0.77417555314E+01
 0.67124849673E+01 0.57992374671E+01 0.50025784666E+01 0.43188332525E+01 0.37410717529E+01
 0.32600233736E+01 0.28651303846E+01 0.25456619172E+01 0.22916705894E+01 0.20946401403E+01
 0.19478033211E+01 0.18461855246E+01 0.17864641146E+01 0.17667589806E+01 0.17864641642E+01
 0.18461856223E+01 0.19478033454E+01 0.20946398186E+01 0.22916697638E+01 0.25456609612E+01
 0.28651302057E+01 0.32600246562E+01 0.37410740245E+01 0.43188348960E+01 0.50025779944E+01
 0.57992349343E+01 0.69860980113E+01 0.80753550153E+01 0.92653297855E+01 0.10533519778E+02
 0.11845871649E+02 0.13155645224E+02 0.14403982469E+02 0.15523119704E+02 0.16442587070E+02
 0.17097717028E+02 0.17438803330E+02 0.17438801262E+02 0.17097711043E+02 0.16442580000E+02
 0.15523118675E+02 0.14403993566E+02 0.13155664815E+02 0.11845885506E+02 0.10533514096E+02
 0.92653045108E+01 0.80753261546E+01 0.69860858483E+01 0.60103827929E+01 0.51532220212E+01
 0.44134924840E+01 0.37854293525E+01 0.32600233736E+01 0.28264645744E+01 0.24735137917E+01
 0.21905907835E+01 0.19684504571E+01 0.17994815201E+01 0.16777546197E+01 0.15989471789E+01
 0.15602396411E+01 0.15602395211E+01 0.15989469333E+01 0.16777535508E+01 0.17994778839E+01
 0.19684448955E+01 0.21905890867E+01 0.24735225288E+01 0.28264820875E+01 0.32600370976E+01
 0.37854253088E+01 0.44134689516E+01 0.51531935453E+01 0.60103696850E+01 0.73881150613E+01
 0.85445792306E+01 0.97903772075E+01 0.11094562257E+02 0.12414519668E+02 0.13696392100E+02
 0.14877339784E+02 0.15890119290E+02 0.16669861593E+02 0.17162102479E+02 0.17330449773E+02
 0.17162102777E+02 0.16669861270E+02 0.15890117786E+02 0.14877337926E+02 0.13696391588E+02
 0.12414521444E+02 0.11094565378E+02 0.97903794160E+01 0.85445787745E+01 0.73881121955E+01
 0.63409879048E+01 0.54135921783E+01 0.46082804105E+01 0.39211169447E+01 0.33437204221E+01
 0.28651303846E+01 0.24735137917E+01 0.21574914664E+01 0.19069534059E+01 0.17133988336E+01
 0.15699667393E+01 0.14713500494E+01 0.14137308047E+01 0.13947854346E+01 0.14137308502E+01
 0.14713500456E+01 0.15699666119E+01 0.17133987279E+01 0.19069537027E+01 0.21574923568E+01
 0.24735147472E+01 0.28651303174E+01 0.33437187386E+01 0.39211144978E+01 0.46082791237E+01
 0.54135934117E+01 0.63409910745E+01 0.79348408540E+01 0.91664759678E+01 0.10473463501E+02
 0.11816668059E+02 0.13145694158E+02 0.14400644210E+02 0.15515743873E+02 0.16424952291E+02
 0.17069077653E+02 0.17403260183E+02 0.17403265039E+02 0.17069087758E+02 0.16424957157E+02
 0.15515734911E+02 0.14400623418E+02 0.13145675599E+02 0.11816667885E+02 0.10473485577E+02
 0.91665066956E+01 0.79348591744E+01 0.68060905971E+01 0.57967740258E+01 0.49137464753E+01
 0.41558367219E+01 0.35159587221E+01 0.29833515089E+01 0.25456619172E+01 0.21905907835E+01
 0.19069534059E+01 0.16851722968E+01 0.15173581005E+01 0.13972021169E+01 0.13198812826E+01
 0.12820758829E+01 0.12820766485E+01 0.13198824958E+01 0.13972026179E+01 0.15173592559E+01
 0.16851759904E+01 0.19069574566E+01 0.21905889376E+01 0.25456504893E+01 0.29833358031E+01
 0.35159511941E+01 0.41558470004E+01 0.49137717139E+01 0.57967985602E+01 0.68060966201E+01
 0.86449479976E+01 0.99604759329E+01 0.11335180072E+02 0.12722158170E+02 0.14063773025E+02
 0.15294503820E+02 0.16345754351E+02 0.17152432948E+02 0.17660488883E+02 0.17834036666E+02
 0.17660489914E+02 0.17152434851E+02 0.16345756370E+02 0.15294504625E+02 0.14063771671E+02
 0.12722155187E+02 0.11335177416E+02 0.99604755554E+01 0.86449502259E+01 0.74235877224E+01
 0.63194918416E+01 0.53447511918E+01 0.45019562632E+01 0.37862597395E+01 0.31877762954E+01
 0.26939718289E+01 0.22916705894E+01 0.19684504571E+01 0.17133988336E+01 0.15173581005E+01
 0.13728721308E+01 0.12740597073E+01 0.12165796919E+01 0.11977275907E+01 0.12165795544E+01
 0.12740595514E+01 0.13728721494E+01 0.15173583416E+01 0.17133989804E+01 0.19684500330E+01
 0.22916695924E+01 0.26939710795E+01 0.31877768477E+01 0.37862617335E+01 0.45019584232E+01
 0.53447516964E+01 0.63194899207E+01 0.74235845098E+01 0.95418919605E+01 0.10953518711E+02
 0.12407354258E+02 0.13848622796E+02 0.15211872970E+02 0.16424938947E+02 0.17415147053E+02
 0.18117227334E+02 0.18481650784E+02 0.18481646552E+02 0.18117220707E+02 0.17415150237E+02
 0.16424957157E+02 0.15211896090E+02 0.13848631566E+02 0.12407337663E+02 0.10953486110E+02
 0.95418665710E+01 0.82147195667E+01 0.70014778389E+01 0.59195581232E+01 0.49758155461E+01
 0.41684725396E+01 0.34894005754E+01 0.29265457568E+01 0.24661762736E+01 0.20946401403E+01
 0.17994815201E+01 0.15699667393E+01 0.13972021169E+01 0.12740597073E+01 0.11950964871E+01
 0.11565743464E+01 0.11565730461E+01 0.11950942078E+01 0.12740588983E+01 0.13972024155E+01
 0.15699655627E+01 0.17994782638E+01 0.20946383378E+01 0.24661806845E+01 0.29265571250E+01
 0.34894128263E+01 0.41684752941E+01 0.49758017423E+01 0.59195322502E+01 0.70014566053E+01
 0.82147204603E+01 0.10662745010E+02 0.12192696328E+02 0.13748802410E+02 0.15266552181E+02
 0.16669860598E+02 0.17876770369E+02 0.18807919438E+02 0.19396542908E+02 0.19597987392E+02
 0.19396541396E+02 0.18807917338E+02 0.17876769117E+02 0.16669861270E+02 0.15266554585E+02
 0.13748804972E+02 0.12192697152E+02 0.10662743387E+02 0.92091562106E+01 0.78675179217E+01
 0.66599643736E+01 0.55971051863E+01 0.46801908907E+01 0.39033187446E+01 0.32556300630E+01
 0.27234462029E+01 0.22921799337E+01 0.19478033211E+01 0.16777546197E+01 0.14713500494E+01
 0.13198812826E+01 0.12165796919E+01 0.11565743464E+01 0.11369048196E+01 0.11565743494E+01
 0.12165796752E+01 0.13198811709E+01 0.14713498142E+01 0.16777544649E+01 0.19478036382E+01
 0.22921808817E+01 0.27234472925E+01 0.32556303197E+01 0.39033175135E+01 0.46801886184E+01
 0.55971033613E+01 0.66599644767E+01 0.78675201648E+01 0.92091591750E+01 0.12074572362E+02
 0.13764598010E+02 0.15465505944E+02 0.17097726394E+02 0.18568568104E+02 0.19781319640E+02
 0.20647362462E+02 0.21098802040E+02 0.21098801758E+02 0.20647358040E+02 0.19781305418E+02
 0.18568546401E+02 0.17097711043E+02 0.15465512204E+02 0.13764626376E+02 0.12074603927E+02
 0.10457089949E+02 0.89550995330E+01 0.75950279825E+01 0.63898582812E+01 0.53424275293E+01
 0.44481890014E+01 0.36973853925E+01 0.30768301274E+01 0.25715202797E+01 0.21661220685E+01
 0.18461855246E+01 0.15989471789E+01 0.14137308047E+01 0.12820758829E+01 0.11977275907E+01
 0.11565730461E+01 0.11565743494E+01 0.11977299491E+01 0.12820767727E+01 0.14137300337E+01
 0.15989468547E+01 0.18461872073E+01 0.21661248259E+01 0.25715210058E+01 0.30768253225E+01
 0.36973745034E+01 0.44481781172E+01 0.53424279353E+01 0.63898764629E+01 0.75950551505E+01