unknown system                          
   1.00000000000000     
     0.000000    2.816500    2.816500
     2.816500    0.000000    2.816500
     2.816500    2.816500    0.000000
   Ge
     2
Direct
  0.000000  0.000000  0.000000
  0.250000  0.250000  0.250000
 
   48   48   48
 0.84183990822E+03 0.81874036260E+03 0.75292744003E+03 0.65397108524E+03 0.53523848082E+03
 0.41109488587E+03 0.29446348401E+03 0.19517318958E+03 0.11905514167E+03 0.67598191089E+02
 0.38133861816E+02 0.24684422553E+02 0.19508485252E+02 0.16303449623E+02 0.13894993040E+02
 0.12074544299E+02 0.10662737317E+02 0.95418977671E+01 0.86449628886E+01 0.79348623167E+01
 0.73881413531E+01 0.69861275766E+01 0.67125136868E+01 0.65541324601E+01 0.65023464309E+01
 0.65541329304E+01 0.67125142197E+01 0.69861277997E+01 0.73881412812E+01 0.79348622245E+01
 0.86449629274E+01 0.95418978173E+01 0.10662737206E+02 0.12074544046E+02 0.13894992829E+02
 0.16303449576E+02 0.19508485318E+02 0.24684422616E+02 0.38133861847E+02 0.67598191156E+02
 0.11905514182E+03 0.19517318974E+03 0.29446348406E+03 0.41109488577E+03 0.53523848065E+03
 0.65397108513E+03 0.75292744001E+03 0.81874036263E+03 0.81874036260E+03 0.77414274806E+03
 0.69163135178E+03 0.58290337823E+03 0.46201225886E+03 0.34267086162E+03 0.23619880476E+03
 0.15028982858E+03 0.88438513524E+02 0.49886566937E+02 0.30146346785E+02 0.22208259181E+02
 0.18539325056E+02 0.15813933842E+02 0.13764572783E+02 0.12192660323E+02 0.10953480590E+02
 0.99604787901E+01 0.91665139907E+01 0.85446018887E+01 0.80753502546E+01 0.77417655338E+01
 0.75289525777E+01 0.74256043084E+01 0.74255865722E+01 0.75289305010E+01 0.77417780420E+01
 0.80753757524E+01 0.85445956697E+01 0.91664866826E+01 0.99604788580E+01 0.10953510222E+02
 0.12192670500E+02 0.13764547030E+02 0.15813916505E+02 0.18539345111E+02 0.22208280219E+02
 0.30146328366E+02 0.49886532122E+02 0.88438510083E+02 0.15028985474E+03 0.23619882445E+03
 0.34267087132E+03 0.46201228053E+03 0.58290339478E+03 0.69163131583E+03 0.77414266812E+03
 0.81874031916E+03 0.75292744003E+03 0.69163135178E+03 0.59960363726E+03 0.48945734766E+03
 0.37472128563E+03 0.26750475881E+03 0.17690785296E+03 0.10816432477E+03 0.62355488319E+02
 0.36660025133E+02 0.25233384909E+02 0.20719141931E+02 0.17722684391E+02 0.15465431510E+02
 0.13748756492E+02 0.12407328522E+02 0.11335167896E+02 0.10473460771E+02 0.97903814777E+01
 0.92653392334E+01 0.88808089128E+01 0.86205010868E+01 0.84706195229E+01 0.84217769330E+01
 0.84706194021E+01 0.86205007672E+01 0.88808083984E+01 0.92653387505E+01 0.97903813967E+01
 0.10473461298E+02 0.11335168787E+02 0.12407329161E+02 0.13748756402E+02 0.15465430863E+02
 0.17722683919E+02 0.20719142129E+02 0.25233385295E+02 0.36660024576E+02 0.62355486427E+02
 0.10816432296E+03 0.17690785362E+03 0.26750476290E+03 0.37472129090E+03 0.48945734976E+03
 0.59960363349E+03 0.69163134400E+03 0.75292743375E+03 0.77445659146E+03 0.65397108524E+03
 0.58290337823E+03 0.48945734766E+03 0.38596003796E+03 0.28444705993E+03 0.19479571711E+03
 0.12356050523E+03 0.73430177349E+02 0.43227907652E+02 0.28496654688E+02 0.22706620545E+02
 0.19516753208E+02 0.17097614604E+02 0.15266463221E+02 0.13848587199E+02 0.12722155094E+02
 0.11816650058E+02 0.11094527965E+02 0.10533509379E+02 0.10115480776E+02 0.98226786169E+01
 0.96385531774E+01 0.95501116038E+01 0.95501268968E+01 0.96385718793E+01 0.98226668560E+01
 0.10115457689E+02 0.10533514298E+02 0.11094551872E+02 0.11816650912E+02 0.12722130850E+02
 0.13848579498E+02 0.15266484973E+02 0.17097627440E+02 0.19516734708E+02 0.22706604779E+02
 0.28496674628E+02 0.43227937347E+02 0.73430172779E+02 0.12356047412E+03 0.19479570093E+03
 0.28444706448E+03 0.38596003424E+03 0.48945733611E+03 0.58290339531E+03 0.65397113428E+03
 0.69242398733E+03 0.69242395913E+03 0.53523848082E+03 0.46201225886E+03 0.37472128563E+03
 0.28444705993E+03 0.20109847902E+03 0.13199556462E+03 0.81062574900E+02 0.48582368379E+02
 0.31517003854E+02 0.24427498455E+02 0.21078929078E+02 0.18568448439E+02 0.16669773273E+02
 0.15211810609E+02 0.14063727527E+02 0.13145659597E+02 0.12414492621E+02 0.11845850054E+02
 0.11420843547E+02 0.11120066248E+02 0.10923609014E+02 0.10813885947E+02 0.10778760092E+02
 0.10813886205E+02 0.10923609117E+02 0.11120065826E+02 0.11420842747E+02 0.11845849514E+02
 0.12414492913E+02 0.13145660654E+02 0.14063728631E+02 0.15211810979E+02 0.16669772686E+02
 0.18568447326E+02 0.21078928124E+02 0.24427498149E+02 0.31517004288E+02 0.48582369277E+02
 0.81062575762E+02 0.13199556496E+03 0.20109847866E+03 0.28444705918E+03 0.37472128505E+03
 0.46201225882E+03 0.53523848124E+03 0.58411073627E+03 0.60129034321E+03 0.58411073585E+03
 0.41109488587E+03 0.34267086162E+03 0.26750475881E+03 0.19479571711E+03 0.13199556462E+03
 0.83783990471E+02 0.51590186986E+02 0.33670243743E+02 0.25760461915E+02 0.22294333094E+02
 0.19781169395E+02 0.17876673815E+02 0.16424874803E+02 0.15294435253E+02 0.14400573908E+02
 0.13696347664E+02 0.13155623473E+02 0.12758566999E+02 0.12483772795E+02 0.12307237794E+02
 0.12205492169E+02 0.12159810990E+02 0.12159799781E+02 0.12205478682E+02 0.12307246776E+02
 0.12483789365E+02 0.12758562089E+02 0.13155605120E+02 0.13696348104E+02 0.14400593936E+02
 0.15294442484E+02 0.16424859218E+02 0.17876663957E+02 0.19781180805E+02 0.22294339548E+02
 0.25760441794E+02 0.33670222508E+02 0.51590199989E+02 0.83784025530E+02 0.13199557981E+03
 0.19479570379E+03 0.26750474673E+03 0.34267086392E+03 0.41109488102E+03 0.46336595062E+03
 0.49170898497E+03 0.49170899899E+03 0.46336597283E+03 0.29446348401E+03 0.23619880476E+03
 0.17690785296E+03 0.12356050523E+03 0.81062574900E+02 0.51590186986E+02 0.34451847925E+02
 0.26500452940E+02 0.23066490727E+02 0.20647211584E+02 0.18807798928E+02 0.17415051695E+02
 0.16345675998E+02 0.15515675711E+02 0.14877277905E+02 0.14403925035E+02 0.14075264593E+02
 0.13867709982E+02 0.13752336517E+02 0.13698322120E+02 0.13678431021E+02 0.13674012136E+02
 0.13678432206E+02 0.13698323268E+02 0.13752336346E+02 0.13867708363E+02 0.14075262689E+02
 0.14403924313E+02 0.14877278920E+02 0.15515677716E+02 0.16345677641E+02 0.17415052145E+02
 0.18807798393E+02 0.20647210760E+02 0.23066489836E+02 0.26500451585E+02 0.34451846058E+02
 0.51590185826E+02 0.81062576288E+02 0.12356050958E+03 0.17690785789E+03 0.23619880638E+03
 0.29446348018E+03 0.34381070147E+03 0.37691760429E+03 0.38858159594E+03 0.37691761007E+03
 0.34381070879E+03 0.19517318958E+03 0.15028982858E+03 0.10816432477E+03 0.73430177349E+02
 0.48582368379E+02 0.33670243743E+02 0.26500452940E+02 0.23331326943E+02 0.21098643162E+02
 0.19396417349E+02 0.18117114876E+02 0.17152333351E+02 0.16424874803E+02 0.15890053604E+02
 0.15523044973E+02 0.15304037800E+02 0.15207623712E+02 0.15199549591E+02 0.15240329555E+02
 0.15292241874E+02 0.15326112221E+02 0.15326120840E+02 0.15292253390E+02 0.15240325161E+02
 0.15199537134E+02 0.15207622981E+02 0.15304046630E+02 0.15523044823E+02 0.15890043330E+02
 0.16424872563E+02 0.17152343914E+02 0.18117121312E+02 0.19396412476E+02 0.21098643651E+02
 0.23331341559E+02 0.26500459631E+02 0.33670221218E+02 0.48582335305E+02 0.73430172663E+02
 0.10816435442E+03 0.15028985824E+03 0.19517319145E+03 0.23681614983E+03 0.26899125622E+03
 0.28654126626E+03 0.28654127086E+03 0.26899127121E+03 0.23681616743E+03 0.11905514167E+03
 0.88438513524E+02 0.62355488319E+02 0.43227907652E+02 0.31517003854E+02 0.25760461915E+02
 0.23066490727E+02 0.21098643162E+02 0.19597854149E+02 0.18481538669E+02 0.17660390418E+02
 0.17068986245E+02 0.16669773273E+02 0.16442499877E+02 0.16369668658E+02 0.16424983878E+02
 0.16569047866E+02 0.16753028167E+02 0.16927208028E+02 0.17049922267E+02 0.17093960307E+02
 0.17049923878E+02 0.16927210526E+02 0.16753030194E+02 0.16569048062E+02 0.16424981952E+02
 0.16369665875E+02 0.16442498187E+02 0.16669773681E+02 0.17068988003E+02 0.17660391866E+02
 0.18481538886E+02 0.19597853726E+02 0.21098643368E+02 0.23066491962E+02 0.25760463069E+02
 0.31517003296E+02 0.43227904923E+02 0.62355484851E+02 0.88438511641E+02 0.11905514278E+03
 0.15023459087E+03 0.17724414274E+03 0.19560456268E+03 0.20211227976E+03 0.19560455999E+03
 0.17724413857E+03 0.15023458727E+03 0.67598191089E+02 0.49886566937E+02 0.36660025133E+02
 0.28496654688E+02 0.24427498455E+02 0.22294333094E+02 0.20647211584E+02 0.19396417349E+02
 0.18481538669E+02 0.17833941062E+02 0.17403167024E+02 0.17162003046E+02 0.17097614604E+02
 0.17197220163E+02 0.17435411298E+02 0.17768585297E+02 0.18138560023E+02 0.18487194368E+02
 0.18787708170E+02 0.18973216895E+02 0.18973213240E+02 0.18787704663E+02 0.18487200355E+02
 0.18138569837E+02 0.17768586295E+02 0.17435403584E+02 0.17197215622E+02 0.17097618074E+02
 0.17162006895E+02 0.17403165291E+02 0.17833936885E+02 0.18481534654E+02 0.19396410964E+02
 0.20647206337E+02 0.22294341871E+02 0.24427524073E+02 0.28496675502E+02 0.36660015311E+02
 0.49886529900E+02 0.67598159815E+02 0.87745570160E+02 0.10725213380E+03 0.12272828797E+03
 0.13129246908E+03 0.13129245525E+03 0.12272825436E+03 0.10725210317E+03 0.87745568337E+02
 0.38133861816E+02 0.30146346785E+02 0.25233384909E+02 0.22706620545E+02 0.21078929078E+02
 0.19781169395E+02 0.18807798928E+02 0.18117114876E+02 0.17660390418E+02 0.17403167024E+02
 0.17330350342E+02 0.17438700777E+02 0.17722684391E+02 0.18160374719E+02 0.18706018399E+02
 0.19297432490E+02 0.19961455998E+02 0.20678312997E+02 0.21253028974E+02 0.21474052422E+02
 0.21253029531E+02 0.20678314405E+02 0.19961458110E+02 0.19297434219E+02 0.18706018305E+02
 0.18160372386E+02 0.17722681213E+02 0.17438699111E+02 0.17330351543E+02 0.17403170147E+02
 0.17660392897E+02 0.18117114685E+02 0.18807796294E+02 0.19781166583E+02 0.21078928456E+02
 0.22706622599E+02 0.25233387899E+02 0.30146348313E+02 0.38133860906E+02 0.48721232480E+02
 0.60403685940E+02 0.71058232050E+02 0.78526213041E+02 0.81211290457E+02 0.78526212426E+02
 0.71058232068E+02 0.60403687464E+02 0.48721234680E+02 0.24684422553E+02 0.22208259181E+02
 0.20719141931E+02 0.19516753208E+02 0.18568448439E+02 0.17876673815E+02 0.17415051695E+02
 0.17152333351E+02 0.17068986245E+02 0.17162003046E+02 0.17438700777E+02 0.17902918039E+02
 0.18539325056E+02 0.19303313979E+02 0.20163903007E+02 0.21291120103E+02 0.22646972015E+02
 0.23905608194E+02 0.24666999501E+02 0.24667000660E+02 0.23905609603E+02 0.22646971058E+02
 0.21291118213E+02 0.20163903238E+02 0.19303315355E+02 0.18539323349E+02 0.17902912548E+02
 0.17438697044E+02 0.17162007193E+02 0.17068998108E+02 0.17152345817E+02 0.17415055328E+02
 0.17876662706E+02 0.18568425623E+02 0.19516732506E+02 0.20719140514E+02 0.22208282618E+02
 0.24684456395E+02 0.28707093850E+02 0.34027993543E+02 0.39725745329E+02 0.44540376953E+02
 0.47298275445E+02 0.47298288728E+02 0.44540409106E+02 0.39725776517E+02 0.34028002740E+02
 0.28707074276E+02 0.19508485252E+02 0.18539325056E+02 0.17722684391E+02 0.17097614604E+02
 0.16669773273E+02 0.16424874803E+02 0.16345675998E+02 0.16424874803E+02 0.16669773273E+02
 0.17097614604E+02 0.17722684391E+02 0.18539325056E+02 0.19508485252E+02 0.20640608522E+02
 0.22247774703E+02 0.24333799031E+02 0.26486992732E+02 0.28116385821E+02 0.28723768526E+02
 0.28116384523E+02 0.26486991772E+02 0.24333799963E+02 0.22247777330E+02 0.20640610930E+02
 0.19508485444E+02 0.18539322620E+02 0.17722680795E+02 0.17097612089E+02 0.16669773358E+02
 0.16424877429E+02 0.16345679660E+02 0.16424877429E+02 0.16669773358E+02 0.17097612089E+02
 0.17722680795E+02 0.18539322620E+02 0.19508485444E+02 0.20640610930E+02 0.22247777330E+02
 0.24333799963E+02 0.26486991772E+02 0.28116384523E+02 0.28723768526E+02 0.28116385821E+02
 0.26486992732E+02 0.24333799031E+02 0.22247774703E+02 0.20640608522E+02 0.16303449623E+02
 0.15813933842E+02 0.15465431510E+02 0.15266463221E+02 0.15211810609E+02 0.15294435253E+02
 0.15515675711E+02 0.15890053604E+02 0.16442499877E+02 0.17197220163E+02 0.18160374719E+02
 0.19303313979E+02 0.20640608522E+02 0.22598509166E+02 0.25315035494E+02 0.28382082042E+02
 0.31070915170E+02 0.32643464065E+02 0.32643463586E+02 0.31070914135E+02 0.28382081814E+02
 0.25315037708E+02 0.22598513681E+02 0.20640612821E+02 0.19303315614E+02 0.18160373273E+02
 0.17197215626E+02 0.16442491117E+02 0.15890041826E+02 0.15515668753E+02 0.15294443289E+02
 0.15211834099E+02 0.15266487377E+02 0.15465437122E+02 0.15813914886E+02 0.16303418970E+02
 0.16903080816E+02 0.17558710452E+02 0.18204911807E+02 0.18841967191E+02 0.19415277667E+02
 0.19764848150E+02 0.19764840440E+02 0.19415257360E+02 0.18841942484E+02 0.18204894675E+02
 0.17558711876E+02 0.16903102861E+02 0.13894993040E+02 0.13764572783E+02 0.13748756492E+02
 0.13848587199E+02 0.14063727527E+02 0.14400573908E+02 0.14877277905E+02 0.15523044973E+02
 0.16369668658E+02 0.17435411298E+02 0.18706018399E+02 0.20163903007E+02 0.22247774703E+02
 0.25315035494E+02 0.29079370628E+02 0.32779066512E+02 0.35493531907E+02 0.36490740869E+02
 0.35493529054E+02 0.32779063154E+02 0.29079369443E+02 0.25315037277E+02 0.22247777905E+02
 0.20163905263E+02 0.18706018504E+02 0.17435409833E+02 0.16369666967E+02 0.15523043793E+02
 0.14877277061E+02 0.14400573144E+02 0.14063727276E+02 0.13848588268E+02 0.13748758964E+02
 0.13764575397E+02 0.13894993947E+02 0.14129455721E+02 0.14442897884E+02 0.14796003993E+02
 0.15140637212E+02 0.15428292255E+02 0.15618507927E+02 0.15684938551E+02 0.15618505877E+02
 0.15428290079E+02 0.15140637040E+02 0.14796006275E+02 0.14442900998E+02 0.14129457369E+02
 0.12074544299E+02 0.12192660323E+02 0.12407328522E+02 0.12722155094E+02 0.13145659597E+02
 0.13696347664E+02 0.14403925035E+02 0.15304037800E+02 0.16424983878E+02 0.17768585297E+02
 0.19297432490E+02 0.21291120103E+02 0.24333799031E+02 0.28382082042E+02 0.32779066512E+02
 0.36536413897E+02 0.38703029721E+02 0.38703026168E+02 0.36536406986E+02 0.32779062579E+02
 0.28382082398E+02 0.24333799946E+02 0.21291118890E+02 0.19297430596E+02 0.17768586013E+02
 0.16424989594E+02 0.15304048401E+02 0.14403935410E+02 0.13696347593E+02 0.13145642095E+02
 0.12722127867E+02 0.12407312566E+02 0.12192671324E+02 0.12074575612E+02 0.12047990798E+02
 0.12101333860E+02 0.12214236444E+02 0.12358788357E+02 0.12503602256E+02 0.12619202935E+02
 0.12683053548E+02 0.12683054179E+02 0.12619207646E+02 0.12503615757E+02 0.12358808893E+02
 0.12214251462E+02 0.12101328190E+02 0.12047962997E+02 0.10662737317E+02 0.10953480590E+02
 0.11335167896E+02 0.11816650058E+02 0.12414492621E+02 0.13155623473E+02 0.14075264593E+02
 0.15207623712E+02 0.16569047866E+02 0.18138560023E+02 0.19961455998E+02 0.22646972015E+02
 0.26486992732E+02 0.31070915170E+02 0.35493531907E+02 0.38703029721E+02 0.39876119227E+02
 0.38703028031E+02 0.35493529269E+02 0.31070912955E+02 0.26486992305E+02 0.22646973677E+02
 0.19961458476E+02 0.18138561349E+02 0.16569047116E+02 0.15207621937E+02 0.14075263837E+02
 0.13155624711E+02 0.12414494689E+02 0.11816650738E+02 0.11335166131E+02 0.10953477621E+02
 0.10662735583E+02 0.10457081572E+02 0.10329106276E+02 0.10267113563E+02 0.10254804472E+02
 0.10273007804E+02 0.10302565793E+02 0.10327390911E+02 0.10336892337E+02 0.10327392380E+02
 0.10302567933E+02 0.10273009226E+02 0.10254803948E+02 0.10267111104E+02 0.10329103514E+02
 0.10457080658E+02 0.95418977671E+01 0.99604787901E+01 0.10473460771E+02 0.11094527965E+02
 0.11845850054E+02 0.12758566999E+02 0.13867709982E+02 0.15199549591E+02 0.16753028167E+02
 0.18487194368E+02 0.20678312997E+02 0.23905608194E+02 0.28116385821E+02 0.32643464065E+02
 0.36490740869E+02 0.38703026168E+02 0.38703028031E+02 0.36490743480E+02 0.32643463223E+02
 0.28116383096E+02 0.23905609417E+02 0.20678319859E+02 0.18487200538E+02 0.16753025202E+02
 0.15199535888E+02 0.13867693828E+02 0.12758561485E+02 0.11845863372E+02 0.11094554993E+02
 0.10473483373E+02 0.99604784805E+01 0.95418724278E+01 0.92091636120E+01 0.89551076112E+01
 0.87709241722E+01 0.86454183202E+01 0.85657788328E+01 0.85192404211E+01 0.84948236097E+01
 0.84846495456E+01 0.84846531419E+01 0.84948294101E+01 0.85192378236E+01 0.85657623078E+01
 0.86453961500E+01 0.87709147592E+01 0.89551230110E+01 0.92091956864E+01 0.86449628886E+01
 0.91665139907E+01 0.97903814777E+01 0.10533509379E+02 0.11420843547E+02 0.12483772795E+02
 0.13752336517E+02 0.15240329555E+02 0.16927208028E+02 0.18787708170E+02 0.21253028974E+02
 0.24666999501E+02 0.28723768526E+02 0.32643463586E+02 0.35493529054E+02 0.36536406986E+02
 0.35493529269E+02 0.32643463223E+02 0.28723767088E+02 0.24666997731E+02 0.21253028472E+02
 0.18787709862E+02 0.16927210986E+02 0.15240331500E+02 0.13752335731E+02 0.12483769695E+02
 0.11420840441E+02 0.10533508615E+02 0.97903836052E+01 0.91665174104E+01 0.86449651557E+01
 0.82147372579E+01 0.78675375078E+01 0.75950488321E+01 0.73877629480E+01 0.72353612220E+01
 0.71279157696E+01 0.70570973166E+01 0.70169149652E+01 0.70038936169E+01 0.70169141261E+01
 0.70570957278E+01 0.71279140414E+01 0.72353605168E+01 0.73877641497E+01 0.75950515371E+01
 0.78675399730E+01 0.82147376020E+01 0.79348623167E+01 0.85446018887E+01 0.92653392334E+01
 0.10115480776E+02 0.11120066248E+02 0.12307237794E+02 0.13698322120E+02 0.15292241874E+02
 0.17049922267E+02 0.18973216895E+02 0.21474052422E+02 0.24667000660E+02 0.28116384523E+02
 0.31070914135E+02 0.32779063154E+02 0.32779062579E+02 0.31070912955E+02 0.28116383096E+02
 0.24666997731E+02 0.21474046968E+02 0.18973211727E+02 0.17049923842E+02 0.15292254137E+02
 0.13698339866E+02 0.12307247719E+02 0.11120057219E+02 0.10115455039E+02 0.92653134757E+01
 0.85445952136E+01 0.79348805450E+01 0.74236124030E+01 0.70015049144E+01 0.66599932727E+01
 0.63898884701E+01 0.61814955156E+01 0.60256271868E+01 0.59146906577E+01 0.58433038998E+01
 0.58082974313E+01 0.58082930101E+01 0.58432946856E+01 0.59146862154E+01 0.60256355117E+01
 0.61815150826E+01 0.63899064078E+01 0.66599939932E+01 0.70014838192E+01 0.74235821252E+01
 0.73881413531E+01 0.80753502546E+01 0.88808089128E+01 0.98226786169E+01 0.10923609014E+02
 0.12205492169E+02 0.13678431021E+02 0.15326112221E+02 0.17093960307E+02 0.18973213240E+02
 0.21253029531E+02 0.23905609603E+02 0.26486991772E+02 0.28382081814E+02 0.29079369443E+02
 0.28382082398E+02 0.26486992305E+02 0.23905609417E+02 0.21253028472E+02 0.18973211727E+02
 0.17093959076E+02 0.15326112054E+02 0.13678432398E+02 0.12205494784E+02 0.10923611572E+02
 0.98226794521E+01 0.88808072169E+01 0.80753468916E+01 0.73881384154E+01 0.68061204119E+01
 0.63195241715E+01 0.59195923648E+01 0.55971408769E+01 0.53424641550E+01 0.51462248246E+01
 0.50005516447E+01 0.48997406596E+01 0.48403365395E+01 0.48206872350E+01 0.48403364095E+01
 0.48997411074E+01 0.50005530065E+01 0.51462262684E+01 0.53424642348E+01 0.55971389581E+01
 0.59195894581E+01 0.63195223081E+01 0.68061210761E+01 0.69861275766E+01 0.77417655338E+01
 0.86205010868E+01 0.96385531774E+01 0.10813885947E+02 0.12159810990E+02 0.13674012136E+02
 0.15326120840E+02 0.17049923878E+02 0.18787704663E+02 0.20678314405E+02 0.22646971058E+02
 0.24333799963E+02 0.25315037708E+02 0.25315037277E+02 0.24333799946E+02 0.22646973677E+02
 0.20678319859E+02 0.18787709862E+02 0.17049923842E+02 0.15326112054E+02 0.13673996700E+02
 0.12159798474E+02 0.10813888468E+02 0.96385743638E+01 0.86205288913E+01 0.77417792724E+01
 0.69861156366E+01 0.63410215828E+01 0.57968102830E+01 0.53447892954E+01 0.49758550142E+01
 0.46802312643E+01 0.44482297802E+01 0.42713614113E+01 0.41431621684E+01 0.40594494131E+01
 0.40180190051E+01 0.40180216828E+01 0.40594560510E+01 0.41431685155E+01 0.42713612905E+01
 0.44482189004E+01 0.46802128454E+01 0.49758413605E+01 0.53447939484E+01 0.57968348482E+01
 0.63410505481E+01 0.67125136868E+01 0.75289525777E+01 0.84706195229E+01 0.95501116038E+01
 0.10778760092E+02 0.12159799781E+02 0.13678432206E+02 0.15292253390E+02 0.16927210526E+02
 0.18487200355E+02 0.19961458110E+02 0.21291118213E+02 0.22247777330E+02 0.22598513681E+02
 0.22247777905E+02 0.21291118890E+02 0.19961458476E+02 0.18487200538E+02 0.16927210986E+02
 0.15292254137E+02 0.13678432398E+02 0.12159798474E+02 0.10778757549E+02 0.95501095917E+01
 0.84706199016E+01 0.75289554570E+01 0.67125171055E+01 0.60104191822E+01 0.54136312974E+01
 0.49137874264E+01 0.45019984789E+01 0.41685155493E+01 0.39033620775E+01 0.36974286088E+01
 0.35434003092E+01 0.34361784157E+01 0.33727638524E+01 0.33517534882E+01 0.33727642769E+01
 0.34361784972E+01 0.35433993805E+01 0.36974269549E+01 0.39033609198E+01 0.41685161180E+01
 0.45020008938E+01 0.49137902985E+01 0.54136325432E+01 0.60104176440E+01 0.65541324601E+01
 0.74256043084E+01 0.84217769330E+01 0.95501268968E+01 0.10813886205E+02 0.12205478682E+02
 0.13698323268E+02 0.15240325161E+02 0.16753030194E+02 0.18138569837E+02 0.19297434219E+02
 0.20163903238E+02 0.20640610930E+02 0.20640612821E+02 0.20163905263E+02 0.19297430596E+02
 0.18138561349E+02 0.16753025202E+02 0.15240331500E+02 0.13698339866E+02 0.12205494784E+02
 0.10813888468E+02 0.95501095917E+01 0.84217486191E+01 0.74255843367E+01 0.65541366131E+01
 0.57992754906E+01 0.51532629956E+01 0.46083232941E+01 0.41558808458E+01 0.37863045848E+01
 0.34894456631E+01 0.32556749610E+01 0.30768745194E+01 0.29470005981E+01 0.28621357176E+01
 0.28201418123E+01 0.28201411035E+01 0.28621330323E+01 0.29469955075E+01 0.30768695200E+01
 0.32556762546E+01 0.34894580568E+01 0.37863234038E+01 0.41558912609E+01 0.46083124521E+01
 0.51532345019E+01 0.57992493747E+01 0.65023464309E+01 0.74255865722E+01 0.84706194021E+01
 0.96385718793E+01 0.10923609117E+02 0.12307246776E+02 0.13752336346E+02 0.15199537134E+02
 0.16569048062E+02 0.17768586295E+02 0.18706018305E+02 0.19303315355E+02 0.19508485444E+02
 0.19303315614E+02 0.18706018504E+02 0.17768586013E+02 0.16569047116E+02 0.15199535888E+02
 0.13752335731E+02 0.12307247719E+02 0.10923611572E+02 0.96385743638E+01 0.84706199016E+01
 0.74255843367E+01 0.65023429105E+01 0.56966011564E+01 0.50026204209E+01 0.44135364773E+01
 0.39211622136E+01 0.35160046902E+01 0.31878224597E+01 0.29265916792E+01 0.27234915635E+01
 0.25715649310E+01 0.24659225039E+01 0.24035530712E+01 0.23829164642E+01 0.24035528018E+01
 0.24659222973E+01 0.25715652255E+01 0.27234925470E+01 0.29265929665E+01 0.31878230887E+01
 0.35160037188E+01 0.39211597093E+01 0.44135339604E+01 0.50026199214E+01 0.56966034054E+01
 0.65541329304E+01 0.75289305010E+01 0.86205007672E+01 0.98226668560E+01 0.11120065826E+02
 0.12483789365E+02 0.13867708363E+02 0.15207622981E+02 0.16424981952E+02 0.17435403584E+02
 0.18160372386E+02 0.18539323349E+02 0.18539322620E+02 0.18160373273E+02 0.17435409833E+02
 0.16424989594E+02 0.15207621937E+02 0.13867693828E+02 0.12483769695E+02 0.11120057219E+02
 0.98226794521E+01 0.86205288913E+01 0.75289554570E+01 0.65541366131E+01 0.56966011564E+01
 0.49533605680E+01 0.43188777187E+01 0.37854751657E+01 0.33437669340E+01 0.29833981803E+01
 0.26940182103E+01 0.24662220436E+01 0.22922249409E+01 0.21661663387E+01 0.20840666022E+01
 0.20435567166E+01 0.20435565780E+01 0.20840669659E+01 0.21661690664E+01 0.22922305893E+01
 0.24662265085E+01 0.26940139362E+01 0.29833824060E+01 0.33437488480E+01 0.37854710069E+01
 0.43188956159E+01 0.49533905437E+01 0.56966218674E+01 0.67125142197E+01 0.77417780420E+01
 0.88808083984E+01 0.10115457689E+02 0.11420842747E+02 0.12758562089E+02 0.14075262689E+02
 0.15304046630E+02 0.16369665875E+02 0.17197215622E+02 0.17722681213E+02 0.17902912548E+02
 0.17722680795E+02 0.17197215626E+02 0.16369666967E+02 0.15304048401E+02 0.14075263837E+02
 0.12758561485E+02 0.11420840441E+02 0.10115455039E+02 0.88808072169E+01 0.77417792724E+01
 0.67125171055E+01 0.57992754906E+01 0.50026204209E+01 0.43188777187E+01 0.37411177159E+01
 0.32600700697E+01 0.28651772027E+01 0.25457083752E+01 0.22917163593E+01 0.20946850763E+01
 0.19478474536E+01 0.18462290173E+01 0.17865072055E+01 0.17668019357E+01 0.17865072551E+01
 0.18462291149E+01 0.19478474779E+01 0.20946847546E+01 0.22917155337E+01 0.25457074192E+01
 0.28651770239E+01 0.32600713523E+01 0.37411199875E+01 0.43188793622E+01 0.50026199487E+01
 0.57992729578E+01 0.69861277997E+01 0.80753757524E+01 0.92653387505E+01 0.10533514298E+02
 0.11845849514E+02 0.13155605120E+02 0.14403924313E+02 0.15523044823E+02 0.16442498187E+02
 0.17097618074E+02 0.17438699111E+02 0.17438697044E+02 0.17097612089E+02 0.16442491117E+02
 0.15523043793E+02 0.14403935410E+02 0.13155624711E+02 0.11845863372E+02 0.10533508615E+02
 0.92653134757E+01 0.80753468916E+01 0.69861156366E+01 0.60104191822E+01 0.51532629956E+01
 0.44135364773E+01 0.37854751657E+01 0.32600700697E+01 0.28265114082E+01 0.24735601959E+01
 0.21906363901E+01 0.19684951140E+01 0.17995252712E+01 0.16777976452E+01 0.15989897208E+01
 0.15602819471E+01 0.15602818272E+01 0.15989894752E+01 0.16777965763E+01 0.17995216350E+01
 0.19684895524E+01 0.21906346933E+01 0.24735689330E+01 0.28265289213E+01 0.32600837937E+01
 0.37854711221E+01 0.44135129449E+01 0.51532345197E+01 0.60104060743E+01 0.73881412812E+01
 0.85445956697E+01 0.97903813967E+01 0.11094551872E+02 0.12414492913E+02 0.13696348104E+02
 0.14877278920E+02 0.15890043330E+02 0.16669773681E+02 0.17162006895E+02 0.17330351543E+02
 0.17162007193E+02 0.16669773358E+02 0.15890041826E+02 0.14877277061E+02 0.13696347593E+02
 0.12414494689E+02 0.11094554993E+02 0.97903836052E+01 0.85445952136E+01 0.73881384154E+01
 0.63410215828E+01 0.54136312974E+01 0.46083232941E+01 0.39211622136E+01 0.33437669340E+01
 0.28651772027E+01 0.24735601959E+01 0.21575369855E+01 0.19069978354E+01 0.17134422083E+01
 0.15700092588E+01 0.14713919826E+01 0.14137724126E+01 0.13948269405E+01 0.14137724580E+01
 0.14713919788E+01 0.15700091314E+01 0.17134421026E+01 0.19069981322E+01 0.21575378759E+01
 0.24735611513E+01 0.28651771355E+01 0.33437652505E+01 0.39211597667E+01 0.46083220073E+01
 0.54136325308E+01 0.63410247525E+01 0.79348622245E+01 0.91664866826E+01 0.10473461298E+02
 0.11816650912E+02 0.13145660654E+02 0.14400593936E+02 0.15515677716E+02 0.16424872563E+02
 0.17068988003E+02 0.17403165291E+02 0.17403170147E+02 0.17068998108E+02 0.16424877429E+02
 0.15515668753E+02 0.14400573144E+02 0.13145642095E+02 0.11816650738E+02 0.10473483373E+02
 0.91665174104E+01 0.79348805450E+01 0.68061204119E+01 0.57968102830E+01 0.49137874264E+01
 0.41558808458E+01 0.35160046902E+01 0.29833981803E+01 0.25457083752E+01 0.21906363901E+01
 0.19069978354E+01 0.16852155173E+01 0.15174002970E+01 0.13972435805E+01 0.13199223077E+01
 0.12821167120E+01 0.12821174777E+01 0.13199235209E+01 0.13972440815E+01 0.15174014525E+01
 0.16852192108E+01 0.19070018861E+01 0.21906345442E+01 0.25456969473E+01 0.29833824744E+01
 0.35159971621E+01 0.41558911244E+01 0.49138126651E+01 0.57968348175E+01 0.68061264349E+01
 0.86449629274E+01 0.99604788580E+01 0.11335168787E+02 0.12722130850E+02 0.14063728631E+02
 0.15294442484E+02 0.16345677641E+02 0.17152343914E+02 0.17660391866E+02 0.17833936885E+02
 0.17660392897E+02 0.17152345817E+02 0.16345679660E+02 0.15294443289E+02 0.14063727276E+02
 0.12722127867E+02 0.11335166131E+02 0.99604784805E+01 0.86449651557E+01 0.74236124030E+01
 0.63195241715E+01 0.53447892954E+01 0.45019984789E+01 0.37863045848E+01 0.31878224597E+01
 0.26940182103E+01 0.22917163593E+01 0.19684951140E+01 0.17134422083E+01 0.15174002970E+01
 0.13729134184E+01 0.12741004021E+01 0.12166200729E+01 0.11977678763E+01 0.12166199354E+01
 0.12741002462E+01 0.13729134370E+01 0.15174005381E+01 0.17134423551E+01 0.19684946899E+01
 0.22917153623E+01 0.26940174609E+01 0.31878230120E+01 0.37863065788E+01 0.45020006389E+01
 0.53447898001E+01 0.63195222506E+01 0.74236091903E+01 0.95418978173E+01 0.10953510222E+02
 0.12407329161E+02 0.13848579498E+02 0.15211810979E+02 0.16424859218E+02 0.17415052145E+02
 0.18117121312E+02 0.18481538886E+02 0.18481534654E+02 0.18117114685E+02 0.17415055328E+02
 0.16424877429E+02 0.15211834099E+02 0.13848588268E+02 0.12407312566E+02 0.10953477621E+02
 0.95418724278E+01 0.82147372579E+01 0.70015049144E+01 0.59195923648E+01 0.49758550142E+01
 0.41685155493E+01 0.34894456631E+01 0.29265916792E+01 0.24662220436E+01 0.20946850763E+01
 0.17995252712E+01 0.15700092588E+01 0.13972435805E+01 0.12741004021E+01 0.11951367118E+01
 0.11566143564E+01 0.11566130561E+01 0.11951344324E+01 0.12740995931E+01 0.13972438791E+01
 0.15700080822E+01 0.17995220149E+01 0.20946832738E+01 0.24662264545E+01 0.29266030475E+01
 0.34894579141E+01 0.41685183037E+01 0.49758412104E+01 0.59195664917E+01 0.70014836807E+01
 0.82147381514E+01 0.10662737206E+02 0.12192670500E+02 0.13748756402E+02 0.15266484973E+02
 0.16669772686E+02 0.17876663957E+02 0.18807798393E+02 0.19396412476E+02 0.19597853726E+02
 0.19396410964E+02 0.18807796294E+02 0.17876662706E+02 0.16669773358E+02 0.15266487377E+02
 0.13748758964E+02 0.12192671324E+02 0.10662735583E+02 0.92091636120E+01 0.78675375078E+01
 0.66599932727E+01 0.55971408769E+01 0.46802312643E+01 0.39033620775E+01 0.32556749610E+01
 0.27234915635E+01 0.22922249409E+01 0.19478474536E+01 0.16777976452E+01 0.14713919826E+01
 0.13199223077E+01 0.12166200729E+01 0.11566143564E+01 0.11369447102E+01 0.11566143594E+01
 0.12166200562E+01 0.13199221960E+01 0.14713917474E+01 0.16777974904E+01 0.19478477707E+01
 0.22922258889E+01 0.27234926532E+01 0.32556752177E+01 0.39033608465E+01 0.46802289921E+01
 0.55971390519E+01 0.66599933757E+01 0.78675397509E+01 0.92091665764E+01 0.12074544046E+02
 0.13764547030E+02 0.15465430863E+02 0.17097627440E+02 0.18568447326E+02 0.19781180805E+02
 0.20647210760E+02 0.21098643651E+02 0.21098643368E+02 0.20647206337E+02 0.19781166583E+02
 0.18568425623E+02 0.17097612089E+02 0.15465437122E+02 0.13764575397E+02 0.12074575612E+02
 0.10457081572E+02 0.89551076112E+01 0.75950488321E+01 0.63898884701E+01 0.53424641550E+01
 0.44482297802E+01 0.36974286088E+01 0.30768745194E+01 0.25715649310E+01 0.21661663387E+01
 0.18462290173E+01 0.15989897208E+01 0.14137724126E+01 0.12821167120E+01 0.11977678763E+01
 0.11566130561E+01 0.11566143594E+01 0.11977702347E+01 0.12821176019E+01 0.14137716416E+01
 0.15989893966E+01 0.18462307000E+01 0.21661690961E+01 0.25715656571E+01 0.30768697146E+01
 0.36974177197E+01 0.44482188960E+01 0.53424645609E+01 0.63899066518E+01 0.75950760002E+01