    2    2    1    2
  0.2234237E+02  0.3983132E-09  0.3983132E-09  0.3983132E-09  0.5000000E-15
  1.000000000000000E-004
  CAR 
 unknown system                          
     28    100     54
 
  0.5000000E+00  0.5000000E+00  0.5000000E+00  0.1000000E-01
    1      -19.673582    -19.673576   1.000000   1.000000
    2      -19.673582    -19.673576   1.000000   1.000000
    3      -19.629814    -19.629808   1.000000   1.000000
    4      -19.568189    -19.568183   1.000000   1.000000
    5      -19.568189    -19.568183   1.000000   1.000000
    6      -19.428553    -19.428546   1.000000   1.000000
    7      -19.428553    -19.428546   1.000000   1.000000
    8      -19.414699    -19.414693   1.000000   1.000000
    9      -19.351701    -19.351694   1.000000   1.000000
   10      -19.351701    -19.351694   1.000000   1.000000
   11       -5.600063     -5.600067   1.000000   1.000000
   12       -2.644968     -2.644973   1.000000   1.000000
   13        3.355257      3.355250   1.000000   1.000000
   14        3.355257      3.355250   1.000000   1.000000
   15        5.322779      5.322779   0.000000   0.000000
   16        8.716497      8.716494   0.000000   0.000000
   17        8.716497      8.716494   0.000000   0.000000
   18       12.219783     12.219781   0.000000   0.000000
   19       15.612146     15.612142   0.000000   0.000000
   20       16.110844     16.110846   0.000000   0.000000
   21       16.304338     16.304336   0.000000   0.000000
   22       16.304338     16.304336   0.000000   0.000000
   23       17.697746     17.697739   0.000000   0.000000
   24       17.697746     17.697739   0.000000   0.000000
   25       23.961997     23.961969   0.000000   0.000000
   26       26.285225     26.285139   0.000000   0.000000
   27       26.844775     26.844741   0.000000   0.000000
   28       26.844937     26.845008   0.000000   0.000000
   29       27.638869     27.638820   0.000000   0.000000
   30       27.639013     27.638956   0.000000   0.000000
   31       30.727775     30.735651   0.000000   0.000000
   32       31.268590     31.270419   0.000000   0.000000
   33       32.607389     32.607422   0.000000   0.000000
   34       32.608544     32.607877   0.000000   0.000000
   35       32.779654     32.779543   0.000000   0.000000
   36       34.048246     34.048264   0.000000   0.000000
   37       34.048599     34.048554   0.000000   0.000000
   38       37.664016     37.665750   0.000000   0.000000
   39       37.728969     37.668961   0.000000   0.000000
   40       37.805455     37.811590   0.000000   0.000000
   41       37.827344     37.813034   0.000000   0.000000
   42       38.489988     38.486592   0.000000   0.000000
   43       38.590219     38.594317   0.000000   0.000000
   44       40.069549     40.157686   0.000000   0.000000
   45       43.985892     44.336368   0.000000   0.000000
   46       46.265395     46.213238   0.000000   0.000000
   47       46.539529     46.637295   0.000000   0.000000
   48       49.015244     48.940197   0.000000   0.000000
   49       51.118462     50.177421   0.000000   0.000000
   50       52.404983     51.360071   0.000000   0.000000
   51       52.503378     52.742678   0.000000   0.000000
   52       52.756930     52.760012   0.000000   0.000000
   53       56.737847     56.912226   0.000000   0.000000
   54       60.671987     60.149359   0.000000   0.000000
 
  0.4897959E+00  0.4897959E+00  0.4897959E+00  0.1000000E-01
    1      -19.673561    -19.673554   1.000000   1.000000
    2      -19.673561    -19.673554   1.000000   1.000000
    3      -19.629811    -19.629805   1.000000   1.000000
    4      -19.568129    -19.568123   1.000000   1.000000
    5      -19.568129    -19.568123   1.000000   1.000000
    6      -19.428530    -19.428523   1.000000   1.000000
    7      -19.428530    -19.428523   1.000000   1.000000
    8      -19.414674    -19.414667   1.000000   1.000000
    9      -19.351626    -19.351620   1.000000   1.000000
   10      -19.351626    -19.351620   1.000000   1.000000
   11       -5.604994     -5.604998   1.000000   1.000000
   12       -2.637427     -2.637432   1.000000   1.000000
   13        3.356185      3.356178   1.000000   1.000000
   14        3.356185      3.356178   1.000000   1.000000
   15        5.323594      5.323594   0.000000   0.000000
   16        8.716771      8.716768   0.000000   0.000000
   17        8.716771      8.716768   0.000000   0.000000
   18       12.220859     12.220857   0.000000   0.000000
   19       15.536742     15.536740   0.000000   0.000000
   20       16.184320     16.184322   0.000000   0.000000
   21       16.273748     16.273746   0.000000   0.000000
   22       16.273748     16.273746   0.000000   0.000000
   23       17.732572     17.732566   0.000000   0.000000
   24       17.732572     17.732566   0.000000   0.000000
   25       23.920443     23.920448   0.000000   0.000000
   26       26.331532     26.331691   0.000000   0.000000
   27       26.733517     26.733516   0.000000   0.000000
   28       26.733570     26.733619   0.000000   0.000000
   29       27.752988     27.752985   0.000000   0.000000
   30       27.753310     27.754169   0.000000   0.000000
   31       30.544746     30.547813   0.000000   0.000000
   32       31.446224     31.451490   0.000000   0.000000
   33       32.607695     32.607488   0.000000   0.000000
   34       32.611915     32.614553   0.000000   0.000000
   35       32.779767     32.784030   0.000000   0.000000
   36       34.047233     34.047393   0.000000   0.000000
   37       34.053655     34.076042   0.000000   0.000000
   38       37.730655     37.695910   0.000000   0.000000
   39       37.740355     37.751585   0.000000   0.000000
   40       37.933554     37.957253   0.000000   0.000000
   41       38.110748     38.042637   0.000000   0.000000
   42       38.618760     38.821456   0.000000   0.000000
   43       38.643216     39.128230   0.000000   0.000000
   44       40.263546     40.784857   0.000000   0.000000
   45       44.322623     44.532636   0.000000   0.000000
   46       45.971862     46.020825   0.000000   0.000000
   47       46.455527     46.564396   0.000000   0.000000
   48       49.488825     49.216519   0.000000   0.000000
   49       52.262812     52.178753   0.000000   0.000000
   50       52.268940     52.259939   0.000000   0.000000
   51       54.337096     53.817103   0.000000   0.000000
   52       57.680579     54.431581   0.000000   0.000000
   53       59.366670     58.392586   0.000000   0.000000
   54       61.034843     59.851693   0.000000   0.000000
 
  0.4795918E+00  0.4795918E+00  0.4795918E+00  0.1000000E-01
    1      -19.673539    -19.673533   1.000000   1.000000
    2      -19.673539    -19.673533   1.000000   1.000000
    3      -19.629870    -19.629864   1.000000   1.000000
    4      -19.568183    -19.568177   1.000000   1.000000
    5      -19.568183    -19.568177   1.000000   1.000000
    6      -19.428507    -19.428501   1.000000   1.000000
    7      -19.428507    -19.428501   1.000000   1.000000
    8      -19.414608    -19.414601   1.000000   1.000000
    9      -19.351655    -19.351649   1.000000   1.000000
   10      -19.351655    -19.351649   1.000000   1.000000
   11       -5.619625     -5.619629   1.000000   1.000000
   12       -2.614961     -2.614965   1.000000   1.000000
   13        3.358968      3.358961   1.000000   1.000000
   14        3.358968      3.358961   1.000000   1.000000
   15        5.326038      5.326038   0.000000   0.000000
   16        8.717580      8.717577   0.000000   0.000000
   17        8.717580      8.717577   0.000000   0.000000
   18       12.224056     12.224054   0.000000   0.000000
   19       15.375842     15.375840   0.000000   0.000000
   20       16.189853     16.189851   0.000000   0.000000
   21       16.189853     16.189851   0.000000   0.000000
   22       16.339279     16.339280   0.000000   0.000000
   23       17.829185     17.829179   0.000000   0.000000
   24       17.829185     17.829179   0.000000   0.000000
   25       23.805610     23.805623   0.000000   0.000000
   26       26.462526     26.462620   0.000000   0.000000
   27       26.495124     26.495121   0.000000   0.000000
   28       26.495141     26.495268   0.000000   0.000000
   29       28.000318     28.000305   0.000000   0.000000
   30       28.000892     28.003811   0.000000   0.000000
   31       30.255716     30.255640   0.000000   0.000000
   32       31.744581     31.757913   0.000000   0.000000
   33       32.609933     32.600589   0.000000   0.000000
   34       32.634982     32.609431   0.000000   0.000000
   35       32.800234     32.786583   0.000000   0.000000
   36       34.055796     34.041686   0.000000   0.000000
   37       34.181730     34.079713   0.000000   0.000000
   38       37.735511     37.729802   0.000000   0.000000
   39       37.763778     37.762560   0.000000   0.000000
   40       38.144939     38.076085   0.000000   0.000000
   41       38.200881     38.180301   0.000000   0.000000
   42       38.907288     38.709333   0.000000   0.000000
   43       40.877026     40.360368   0.000000   0.000000
   44       44.367580     40.611087   0.000000   0.000000
   45       44.527948     44.567545   0.000000   0.000000
   46       45.467818     45.922825   0.000000   0.000000
   47       47.310809     46.802020   0.000000   0.000000
   48       51.673300     51.667634   0.000000   0.000000
   49       51.818808     51.813420   0.000000   0.000000
   50       52.096735     51.815461   0.000000   0.000000
   51       54.489083     54.470143   0.000000   0.000000
   52       58.805600     58.230274   0.000000   0.000000
   53       61.795774     59.576359   0.000000   0.000000
   54       63.008744     61.883256   0.000000   0.000000
 
  0.4693878E+00  0.4693878E+00  0.4693878E+00  0.1000000E-01
    1      -19.673503    -19.673497   1.000000   1.000000
    2      -19.673503    -19.673497   1.000000   1.000000
    3      -19.629968    -19.629961   1.000000   1.000000
    4      -19.568271    -19.568265   1.000000   1.000000
    5      -19.568271    -19.568265   1.000000   1.000000
    6      -19.428468    -19.428461   1.000000   1.000000
    7      -19.428468    -19.428461   1.000000   1.000000
    8      -19.414499    -19.414492   1.000000   1.000000
    9      -19.351703    -19.351696   1.000000   1.000000
   10      -19.351703    -19.351696   1.000000   1.000000
   11       -5.643499     -5.643503   1.000000   1.000000
   12       -2.578020     -2.578024   1.000000   1.000000
   13        3.363603      3.363596   1.000000   1.000000
   14        3.363603      3.363596   1.000000   1.000000
   15        5.330110      5.330110   0.000000   0.000000
   16        8.718892      8.718889   0.000000   0.000000
   17        8.718892      8.718889   0.000000   0.000000
   18       12.229290     12.229288   0.000000   0.000000
   19       15.187942     15.187941   0.000000   0.000000
   20       16.069105     16.069103   0.000000   0.000000
   21       16.069105     16.069103   0.000000   0.000000
   22       16.516743     16.516743   0.000000   0.000000
   23       17.971162     17.971156   0.000000   0.000000
   24       17.971162     17.971156   0.000000   0.000000
   25       23.638661     23.638653   0.000000   0.000000
   26       26.217267     26.217264   0.000000   0.000000
   27       26.217377     26.217344   0.000000   0.000000
   28       26.656227     26.655869   0.000000   0.000000
   29       28.293052     28.293050   0.000000   0.000000
   30       28.303774     28.296864   0.000000   0.000000
   31       29.947207     29.947072   0.000000   0.000000
   32       32.102775     32.084151   0.000000   0.000000
   33       32.585152     32.580773   0.000000   0.000000
   34       32.634455     32.604174   0.000000   0.000000
   35       32.799310     32.771737   0.000000   0.000000
   36       34.037688     34.037774   0.000000   0.000000
   37       34.174365     34.058459   0.000000   0.000000
   38       37.779646     37.780732   0.000000   0.000000
   39       37.792707     37.783947   0.000000   0.000000
   40       38.228575     38.225160   0.000000   0.000000
   41       38.244298     38.239005   0.000000   0.000000
   42       39.189905     39.155911   0.000000   0.000000
   43       41.860373     41.849795   0.000000   0.000000
   44       44.680531     44.226588   0.000000   0.000000
   45       45.241674     44.462609   0.000000   0.000000
   46       45.687804     45.505677   0.000000   0.000000
   47       47.314318     47.730407   0.000000   0.000000
   48       51.373063     51.373855   0.000000   0.000000
   49       52.455083     52.201993   0.000000   0.000000
   50       53.449399     53.439744   0.000000   0.000000
   51       54.688460     56.922355   0.000000   0.000000
   52       59.348565     59.874178   0.000000   0.000000
   53       62.184994     61.876491   0.000000   0.000000
   54       65.465413     63.592419   0.000000   0.000000
 
  0.4591837E+00  0.4591837E+00  0.4591837E+00  0.1000000E-01
    1      -19.673453    -19.673446   1.000000   1.000000
    2      -19.673453    -19.673446   1.000000   1.000000
    3      -19.630104    -19.630097   1.000000   1.000000
    4      -19.568396    -19.568390   1.000000   1.000000
    5      -19.568396    -19.568390   1.000000   1.000000
    6      -19.428411    -19.428404   1.000000   1.000000
    7      -19.428411    -19.428404   1.000000   1.000000
    8      -19.414347    -19.414340   1.000000   1.000000
    9      -19.351769    -19.351763   1.000000   1.000000
   10      -19.351769    -19.351763   1.000000   1.000000
   11       -5.675921     -5.675925   1.000000   1.000000
   12       -2.527305     -2.527310   1.000000   1.000000
   13        3.370089      3.370082   1.000000   1.000000
   14        3.370089      3.370082   1.000000   1.000000
   15        5.335805      5.335805   0.000000   0.000000
   16        8.720647      8.720644   0.000000   0.000000
   17        8.720647      8.720644   0.000000   0.000000
   18       12.236407     12.236405   0.000000   0.000000
   19       14.990761     14.990760   0.000000   0.000000
   20       15.926324     15.926322   0.000000   0.000000
   21       15.926324     15.926322   0.000000   0.000000
   22       16.698165     16.698165   0.000000   0.000000
   23       18.143734     18.143728   0.000000   0.000000
   24       18.143734     18.143728   0.000000   0.000000
   25       23.440723     23.440721   0.000000   0.000000
   26       25.926881     25.926878   0.000000   0.000000
   27       25.926881     25.926878   0.000000   0.000000
   28       26.888173     26.888165   0.000000   0.000000
   29       28.604277     28.604285   0.000000   0.000000
   30       28.604309     28.604353   0.000000   0.000000
   31       29.639799     29.639803   0.000000   0.000000
   32       32.425269     32.427406   0.000000   0.000000
   33       32.553588     32.552264   0.000000   0.000000
   34       32.553616     32.552786   0.000000   0.000000
   35       32.743817     32.743943   0.000000   0.000000
   36       34.000339     33.999975   0.000000   0.000000
   37       34.003481     34.002278   0.000000   0.000000
   38       37.746548     37.760361   0.000000   0.000000
   39       37.858646     37.836050   0.000000   0.000000
   40       37.920763     37.926997   0.000000   0.000000
   41       38.117655     38.162955   0.000000   0.000000
   42       38.466128     38.564777   0.000000   0.000000
   43       38.943593     38.914531   0.000000   0.000000
   44       40.242356     39.952032   0.000000   0.000000
   45       44.193859     44.405619   0.000000   0.000000
   46       45.884535     45.968833   0.000000   0.000000
   47       46.664665     46.500776   0.000000   0.000000
   48       47.643604     48.122699   0.000000   0.000000
   49       50.544997     50.103017   0.000000   0.000000
   50       50.893111     50.886386   0.000000   0.000000
   51       51.332426     50.897826   0.000000   0.000000
   52       53.061718     54.332541   0.000000   0.000000
   53       56.387601     56.103641   0.000000   0.000000
   54       60.408006     60.281630   0.000000   0.000000
 
  0.4489796E+00  0.4489796E+00  0.4489796E+00  0.1000000E-01
    1      -19.673386    -19.673380   1.000000   1.000000
    2      -19.673386    -19.673380   1.000000   1.000000
    3      -19.630278    -19.630271   1.000000   1.000000
    4      -19.568558    -19.568552   1.000000   1.000000
    5      -19.568558    -19.568552   1.000000   1.000000
    6      -19.428335    -19.428329   1.000000   1.000000
    7      -19.428335    -19.428329   1.000000   1.000000
    8      -19.414152    -19.414146   1.000000   1.000000
    9      -19.351854    -19.351848   1.000000   1.000000
   10      -19.351854    -19.351848   1.000000   1.000000
   11       -5.716021     -5.716025   1.000000   1.000000
   12       -2.463691     -2.463696   1.000000   1.000000
   13        3.378421      3.378414   1.000000   1.000000
   14        3.378421      3.378414   1.000000   1.000000
   15        5.343120      5.343120   0.000000   0.000000
   16        8.722765      8.722762   0.000000   0.000000
   17        8.722765      8.722762   0.000000   0.000000
   18       12.245171     12.245168   0.000000   0.000000
   19       14.790256     14.790254   0.000000   0.000000
   20       15.771555     15.771552   0.000000   0.000000
   21       15.771555     15.771552   0.000000   0.000000
   22       16.876379     16.876379   0.000000   0.000000
   23       18.336922     18.336917   0.000000   0.000000
   24       18.336922     18.336917   0.000000   0.000000
   25       23.228060     23.228058   0.000000   0.000000
   26       25.632529     25.632526   0.000000   0.000000
   27       25.632530     25.632527   0.000000   0.000000
   28       27.138725     27.138720   0.000000   0.000000
   29       28.925435     28.925432   0.000000   0.000000
   30       28.925506     28.925574   0.000000   0.000000
   31       29.346627     29.346613   0.000000   0.000000
   32       32.524199     32.524015   0.000000   0.000000
   33       32.530898     32.534538   0.000000   0.000000
   34       32.726937     32.724964   0.000000   0.000000
   35       32.772780     32.772491   0.000000   0.000000
   36       33.973527     33.973392   0.000000   0.000000
   37       33.986997     33.981521   0.000000   0.000000
   38       37.799531     37.800788   0.000000   0.000000
   39       37.885567     37.894307   0.000000   0.000000
   40       37.961452     37.986028   0.000000   0.000000
   41       38.278844     38.257691   0.000000   0.000000
   42       38.397204     38.400836   0.000000   0.000000
   43       39.235446     38.798529   0.000000   0.000000
   44       40.887293     40.875884   0.000000   0.000000
   45       44.214459     44.311346   0.000000   0.000000
   46       45.791841     45.781553   0.000000   0.000000
   47       46.303560     46.401297   0.000000   0.000000
   48       48.059696     48.184612   0.000000   0.000000
   49       50.433624     50.434469   0.000000   0.000000
   50       50.580231     50.725175   0.000000   0.000000
   51       52.761677     53.239210   0.000000   0.000000
   52       54.850999     55.298039   0.000000   0.000000
   53       58.882257     57.835921   0.000000   0.000000
   54       60.669708     60.311377   0.000000   0.000000
 
  0.4387755E+00  0.4387755E+00  0.4387755E+00  0.1000000E-01
    1      -19.673302    -19.673296   1.000000   1.000000
    2      -19.673302    -19.673296   1.000000   1.000000
    3      -19.630488    -19.630482   1.000000   1.000000
    4      -19.568758    -19.568752   1.000000   1.000000
    5      -19.568758    -19.568752   1.000000   1.000000
    6      -19.428238    -19.428232   1.000000   1.000000
    7      -19.428238    -19.428232   1.000000   1.000000
    8      -19.413914    -19.413908   1.000000   1.000000
    9      -19.351958    -19.351951   1.000000   1.000000
   10      -19.351958    -19.351951   1.000000   1.000000
   11       -5.762837     -5.762841   1.000000   1.000000
   12       -2.388149     -2.388153   1.000000   1.000000
   13        3.388594      3.388587   1.000000   1.000000
   14        3.388594      3.388587   1.000000   1.000000
   15        5.352048      5.352048   0.000000   0.000000
   16        8.725139      8.725136   0.000000   0.000000
   17        8.725139      8.725136   0.000000   0.000000
   18       12.255231     12.255228   0.000000   0.000000
   19       14.589157     14.589156   0.000000   0.000000
   20       15.611024     15.611021   0.000000   0.000000
   21       15.611024     15.611021   0.000000   0.000000
   22       17.047021     17.047021   0.000000   0.000000
   23       18.544583     18.544578   0.000000   0.000000
   24       18.544583     18.544578   0.000000   0.000000
   25       23.012371     23.012367   0.000000   0.000000
   26       25.337586     25.337582   0.000000   0.000000
   27       25.337586     25.337582   0.000000   0.000000
   28       27.383152     27.383131   0.000000   0.000000
   29       29.083804     29.083634   0.000000   0.000000
   30       29.253158     29.253166   0.000000   0.000000
   31       29.254713     29.253172   0.000000   0.000000
   32       32.492554     32.489388   0.000000   0.000000
   33       32.541764     32.521170   0.000000   0.000000
   34       32.702722     32.702465   0.000000   0.000000
   35       33.131609     33.128225   0.000000   0.000000
   36       33.946970     33.942215   0.000000   0.000000
   37       33.953977     33.966932   0.000000   0.000000
   38       37.898621     37.893678   0.000000   0.000000
   39       37.963761     37.974271   0.000000   0.000000
   40       38.217218     38.181000   0.000000   0.000000
   41       38.262795     38.310829   0.000000   0.000000
   42       38.730524     38.704250   0.000000   0.000000
   43       39.956055     39.374611   0.000000   0.000000
   44       42.929373     42.344939   0.000000   0.000000
   45       44.918316     44.559474   0.000000   0.000000
   46       45.749930     45.750293   0.000000   0.000000
   47       48.359130     47.059980   0.000000   0.000000
   48       50.008434     49.589890   0.000000   0.000000
   49       50.317306     49.655727   0.000000   0.000000
   50       52.020656     50.976422   0.000000   0.000000
   51       55.221386     54.416590   0.000000   0.000000
   52       57.290042     56.659640   0.000000   0.000000
   53       58.455449     59.070074   0.000000   0.000000
   54       60.286188     60.989458   0.000000   0.000000
 
  0.4285714E+00  0.4285714E+00  0.4285714E+00  0.1000000E-01
    1      -19.673201    -19.673195   1.000000   1.000000
    2      -19.673201    -19.673195   1.000000   1.000000
    3      -19.630735    -19.630729   1.000000   1.000000
    4      -19.568999    -19.568993   1.000000   1.000000
    5      -19.568999    -19.568993   1.000000   1.000000
    6      -19.428119    -19.428113   1.000000   1.000000
    7      -19.428119    -19.428113   1.000000   1.000000
    8      -19.413636    -19.413630   1.000000   1.000000
    9      -19.352081    -19.352075   1.000000   1.000000
   10      -19.352081    -19.352075   1.000000   1.000000
   11       -5.815377     -5.815381   1.000000   1.000000
   12       -2.301681     -2.301685   1.000000   1.000000
   13        3.400599      3.400592   1.000000   1.000000
   14        3.400599      3.400592   1.000000   1.000000
   15        5.362581      5.362581   0.000000   0.000000
   16        8.727641      8.727638   0.000000   0.000000
   17        8.727641      8.727638   0.000000   0.000000
   18       12.266078     12.266076   0.000000   0.000000
   19       14.389173     14.389172   0.000000   0.000000
   20       15.448587     15.448584   0.000000   0.000000
   21       15.448587     15.448584   0.000000   0.000000
   22       17.206312     17.206312   0.000000   0.000000
   23       18.762958     18.762952   0.000000   0.000000
   24       18.762959     18.762953   0.000000   0.000000
   25       22.802502     22.802504   0.000000   0.000000
   26       25.043642     25.043642   0.000000   0.000000
   27       25.043736     25.043729   0.000000   0.000000
   28       27.585963     27.583659   0.000000   0.000000
   29       28.893764     28.890692   0.000000   0.000000
   30       29.593294     29.591548   0.000000   0.000000
   31       29.623208     29.635519   0.000000   0.000000
   32       32.467220     32.463870   0.000000   0.000000
   33       32.478907     32.478057   0.000000   0.000000
   34       32.720350     32.700517   0.000000   0.000000
   35       33.867121     33.928369   0.000000   0.000000
   36       33.942363     33.933294   0.000000   0.000000
   37       33.954718     34.232590   0.000000   0.000000
   38       37.987500     37.973998   0.000000   0.000000
   39       38.202455     38.188879   0.000000   0.000000
   40       38.399637     38.398282   0.000000   0.000000
   41       38.973102     38.880530   0.000000   0.000000
   42       39.817624     39.356556   0.000000   0.000000
   43       41.995375     42.079852   0.000000   0.000000
   44       43.864238     44.584822   0.000000   0.000000
   45       44.788177     44.758444   0.000000   0.000000
   46       46.337661     45.686908   0.000000   0.000000
   47       49.013554     47.764603   0.000000   0.000000
   48       49.360685     49.237691   0.000000   0.000000
   49       49.509270     49.563887   0.000000   0.000000
   50       52.379975     50.556103   0.000000   0.000000
   51       53.028755     53.394690   0.000000   0.000000
   52       56.834957     55.970649   0.000000   0.000000
   53       59.627033     59.413410   0.000000   0.000000
   54       60.846410     60.430685   0.000000   0.000000
 
  0.4183673E+00  0.4183673E+00  0.4183673E+00  0.1000000E-01
    1      -19.673033    -19.673027   1.000000   1.000000
    2      -19.673033    -19.673027   1.000000   1.000000
    3      -19.631014    -19.631008   1.000000   1.000000
    4      -19.569275    -19.569269   1.000000   1.000000
    5      -19.569275    -19.569269   1.000000   1.000000
    6      -19.427932    -19.427926   1.000000   1.000000
    7      -19.427932    -19.427926   1.000000   1.000000
    8      -19.413258    -19.413251   1.000000   1.000000
    9      -19.352222    -19.352215   1.000000   1.000000
   10      -19.352222    -19.352215   1.000000   1.000000
   11       -5.872678     -5.872682   1.000000   1.000000
   12       -2.205264     -2.205269   1.000000   1.000000
   13        3.414428      3.414421   1.000000   1.000000
   14        3.414428      3.414421   1.000000   1.000000
   15        5.374711      5.374711   0.000000   0.000000
   16        8.730116      8.730113   0.000000   0.000000
   17        8.730116      8.730113   0.000000   0.000000
   18       12.276969     12.276966   0.000000   0.000000
   19       14.191724     14.191722   0.000000   0.000000
   20       15.286728     15.286725   0.000000   0.000000
   21       15.286728     15.286725   0.000000   0.000000
   22       17.350323     17.350323   0.000000   0.000000
   23       18.989671     18.989666   0.000000   0.000000
   24       18.989671     18.989666   0.000000   0.000000
   25       22.605705     22.605704   0.000000   0.000000
   26       24.751553     24.751550   0.000000   0.000000
   27       24.751570     24.751563   0.000000   0.000000
   28       27.651072     27.651752   0.000000   0.000000
   29       28.832601     28.835597   0.000000   0.000000
   30       29.923015     29.923836   0.000000   0.000000
   31       29.962510     29.958230   0.000000   0.000000
   32       32.412888     32.417309   0.000000   0.000000
   33       32.418664     32.424679   0.000000   0.000000
   34       32.650109     32.670032   0.000000   0.000000
   35       33.874020     33.873177   0.000000   0.000000
   36       33.881386     33.882915   0.000000   0.000000
   37       34.373715     34.286726   0.000000   0.000000
   38       38.043521     38.052144   0.000000   0.000000
   39       38.214837     38.218800   0.000000   0.000000
   40       38.401293     38.320581   0.000000   0.000000
   41       38.599629     38.532857   0.000000   0.000000
   42       39.635811     38.657397   0.000000   0.000000
   43       40.777897     41.086426   0.000000   0.000000
   44       42.004497     43.645618   0.000000   0.000000
   45       44.735008     44.946141   0.000000   0.000000
   46       45.956812     45.886462   0.000000   0.000000
   47       47.346089     48.151075   0.000000   0.000000
   48       49.059762     49.060024   0.000000   0.000000
   49       49.063484     49.142389   0.000000   0.000000
   50       49.511252     51.364402   0.000000   0.000000
   51       52.877836     54.344341   0.000000   0.000000
   52       55.930454     54.811888   0.000000   0.000000
   53       58.761461     58.543627   0.000000   0.000000
   54       61.079204     59.131373   0.000000   0.000000
 
  0.4081633E+00  0.4081633E+00  0.4081633E+00  0.1000000E-01
    1      -19.672895    -19.672888   1.000000   1.000000
    2      -19.672895    -19.672888   1.000000   1.000000
    3      -19.631330    -19.631323   1.000000   1.000000
    4      -19.569603    -19.569597   1.000000   1.000000
    5      -19.569603    -19.569597   1.000000   1.000000
    6      -19.427762    -19.427756   1.000000   1.000000
    7      -19.427762    -19.427756   1.000000   1.000000
    8      -19.412904    -19.412898   1.000000   1.000000
    9      -19.352388    -19.352381   1.000000   1.000000
   10      -19.352388    -19.352381   1.000000   1.000000
   11       -5.933843     -5.933847   1.000000   1.000000
   12       -2.099825     -2.099829   1.000000   1.000000
   13        3.430071      3.430064   1.000000   1.000000
   14        3.430071      3.430064   1.000000   1.000000
   15        5.388425      5.388425   0.000000   0.000000
   16        8.732385      8.732382   0.000000   0.000000
   17        8.732385      8.732382   0.000000   0.000000