       N       E                     dE             d eps       ncg     rms          ort
SDA:   1     0.100463666845E+03    0.10046E+03   -0.52952E+02  5400   0.132E+03 0.000E+00
DMP:   2     0.630176288700E+02   -0.37446E+02   -0.27053E+02  5400   0.439E+02 0.620E+02
DMP:   3     0.399249971770E+02   -0.23093E+02   -0.18809E+02  5400   0.278E+02 0.502E+02
DMP:   4     0.215724044518E+02   -0.18353E+02   -0.13400E+02  5400   0.187E+02 0.387E+02
DMP:   5     0.997110484651E+01   -0.11601E+02   -0.93094E+01  5400   0.119E+02 0.297E+02
DMP:   6     0.233015808872E+01   -0.76409E+01   -0.41720E+01  5400   0.492E+01 0.144E+02
DMP:   7    -0.109241042464E+01   -0.34226E+01   -0.18949E+01  5400   0.213E+01 0.682E+01
DMP:   8    -0.267152097889E+01   -0.15791E+01   -0.86599E+00  5400   0.941E+00 0.320E+01
DMP:   9    -0.340915761657E+01   -0.73764E+00   -0.39617E+00  5400   0.413E+00 0.151E+01
DMP:  10    -0.374257686299E+01   -0.33342E+00   -0.17040E+00  5400   0.172E+00 0.665E+00
DMP:  11    -0.388282450333E+01   -0.14025E+00   -0.68023E-01  5400   0.667E-01 0.271E+00
DMP:  12    -0.393751227057E+01   -0.54688E-01   -0.25074E-01  5400   0.237E-01 0.102E+00
DMP:  13    -0.395724288361E+01   -0.19731E-01   -0.85674E-02  5400   0.777E-02 0.357E-01
DMP:  14    -0.396386931138E+01   -0.66264E-02   -0.27404E-02  5400   0.239E-02 0.117E-01
DMP:  15    -0.396595463769E+01   -0.20853E-02   -0.81756E-03  5400   0.680E-03 0.357E-02
DMP:  16    -0.396656393725E+01   -0.60930E-03   -0.22294E-03  5400   0.175E-03 0.100E-02
DMP:  17    -0.396672520695E+01   -0.16127E-03   -0.54044E-04  5400   0.402E-04 0.249E-03
DMP:  18    -0.396676249125E+01   -0.37284E-04   -0.11118E-04  5400   0.826E-05 0.511E-04
   1 F= -.39667625E+01 E0= -.39667625E+01  d E =-.561348E-11  mag=    -0.0000
