 vasp.5.4.4.18Apr17-6-g9f103f2a35 (build Sep 01 2023 15:42:28) complex          
  
 executed on             LinuxIFC date 2023.11.23  02:45:01
 running on   54 total cores
 distrk:  each k-point on    9 cores,    6 groups
 distr:  one band on NCORES_PER_BAND=   3 cores,    3 groups


--------------------------------------------------------------------------------------------------------


 INCAR:
 POTCAR:    PAW_PBE Ge_d 03Jul2007                

 ----------------------------------------------------------------------------- 
|                                                                             |
|           W    W    AA    RRRRR   N    N  II  N    N   GGGG   !!!           |
|           W    W   A  A   R    R  NN   N  II  NN   N  G    G  !!!           |
|           W    W  A    A  R    R  N N  N  II  N N  N  G       !!!           |
|           W WW W  AAAAAA  RRRRR   N  N N  II  N  N N  G  GGG   !            |
|           WW  WW  A    A  R   R   N   NN  II  N   NN  G    G                |
|           W    W  A    A  R    R  N    N  II  N    N   GGGG   !!!           |
|                                                                             |
|      For optimal performance we recommend to set                            |
|        NCORE= 4 - approx SQRT( number of cores)                             |
|      NCORE specifies how many cores store one orbital (NPAR=cpu/NCORE).     |
|      This setting can  greatly improve the performance of VASP for DFT.     |
|      The default,   NCORE=1            might be grossly inefficient         |
|      on modern multi-core architectures or massively parallel machines.     |
|      Do your own testing !!!!                                               |
|      Unfortunately you need to use the default for GW and RPA calculations. |
|      (for HF NCORE is supported but not extensively tested yet)             |
|                                                                             |
 ----------------------------------------------------------------------------- 


 ----------------------------------------------------------------------------- 
|                                                                             |
|           W    W    AA    RRRRR   N    N  II  N    N   GGGG   !!!           |
|           W    W   A  A   R    R  NN   N  II  NN   N  G    G  !!!           |
|           W    W  A    A  R    R  N N  N  II  N N  N  G       !!!           |
|           W WW W  AAAAAA  RRRRR   N  N N  II  N  N N  G  GGG   !            |
|           WW  WW  A    A  R   R   N   NN  II  N   NN  G    G                |
|           W    W  A    A  R    R  N    N  II  N    N   GGGG   !!!           |
|                                                                             |
|      You have enabled k-point parallelism (KPAR>1).                         |
|      This developmental code was originally  written by Paul Kent at ORNL,  |
|      and carefully double checked in Vienna.                                |
|      GW as well as linear response parallelism added by Martijn Marsman     |
|      and Georg Kresse.                                                      |
|      Carefully verify results versus KPAR=1.                                |
|      Report problems to Paul Kent and Vienna.                               |
|                                                                             |
 ----------------------------------------------------------------------------- 

 POTCAR:    PAW_PBE Ge_d 03Jul2007                
   VRHFIN =Ge: 3d4s4p                                                           
   LEXCH  = PE                                                                  
   EATOM  =  2596.2402 eV,  190.8183 Ry                                         
                                                                                
   TITEL  = PAW_PBE Ge_d 03Jul2007                                              
   LULTRA =        F    use ultrasoft PP ?                                      
   IUNSCR =        1    unscreen: 0-lin 1-nonlin 2-no                           
   RPACOR =    2.000    partial core radius                                     
   POMASS =   72.610; ZVAL   =   14.000    mass and valenz                      
   RCORE  =    2.300    outmost cutoff radius                                   
   RWIGS  =    2.300; RWIGS  =    1.217    wigner-seitz radius (au A)           
   ENMAX  =  310.294; ENMIN  =  232.720 eV                                      
   ICORE  =        3    local potential                                         
   LCOR   =        T    correct aug charges                                     
   LPAW   =        T    paw PP                                                  
   EAUG   =  531.356                                                            
   DEXC   =    0.000                                                            
   RMAX   =    2.342    core radius for proj-oper                               
   RAUG   =    1.300    factor for augmentation sphere                          
   RDEP   =    2.318    radius for radial grids                                 
   RDEPT  =    1.783    core radius for aug-charge                              
                                                                                
   Atomic configuration                                                         
    9 entries                                                                   
     n  l   j            E        occ.                                          
     1  0  0.50    -10959.8463   2.0000                                         
     2  0  0.50     -1371.6056   2.0000                                         
     2  1  1.50     -1198.4791   6.0000                                         
     3  0  0.50      -168.4733   2.0000                                         
     3  1  1.50      -115.6019   6.0000                                         
     3  2  2.50       -29.3106  10.0000                                         
     4  0  0.50       -11.7309   2.0000                                         
     4  1  0.50        -3.8952   2.0000                                         
     4  3  2.50        -4.0817   0.0000                                         
   Description                                                                  
     l       E           TYP  RCUT    TYP  RCUT                                 
     2    -29.3105938     23  2.200                                             
     2    -13.6058260     23  2.200                                             
     0    -11.7309493     23  2.300                                             
     0     -7.4578696     23  2.300                                             
     1     -3.8952261     23  2.300                                             
     1      6.1178114     23  2.300                                             
     3     -1.3605826     23  2.300                                             
  local pseudopotential read in
  partial core-charges read in
  partial kinetic energy density read in
  atomic valenz-charges read in
  non local Contribution for L=           2  read in
    real space projection operators read in
  non local Contribution for L=           2  read in
    real space projection operators read in
  non local Contribution for L=           0  read in
    real space projection operators read in
  non local Contribution for L=           0  read in
    real space projection operators read in
  non local Contribution for L=           1  read in
    real space projection operators read in
  non local Contribution for L=           1  read in
    real space projection operators read in
    PAW grid and wavefunctions read in
 
   number of l-projection  operators is LMAX  =           6
   number of lm-projection operators is LMMAX =          18
 
  PAW_PBE Ge_d 03Jul2007                :
 energy of atom  1       EATOM=-2596.2402
 kinetic energy error for atom=    0.0077 (will be added to EATOM!!)
 
 
 POSCAR: Ge                                      
  positions in direct lattice
  No initial velocities read in
 exchange correlation table for  LEXCH =        8
   RHO(1)=    0.500       N(1)  =     2000
   RHO(2)=  100.500       N(2)  =     4000
 


--------------------------------------------------------------------------------------------------------


 ion  position               nearest neighbor table
   1  0.000  0.000  0.000-   2 2.44   2 2.44   2 2.44   2 2.44
   2  0.250  0.250  0.250-   1 2.44   1 2.44   1 2.44   1 2.44
 
  LATTYP: Found a face centered cubic cell.
 ALAT       =     5.6330000000
  
  Lattice vectors:
  
 A1 = (   0.0000000000,   2.8165000000,   2.8165000000)
 A2 = (   2.8165000000,   0.0000000000,   2.8165000000)
 A3 = (   2.8165000000,   2.8165000000,   0.0000000000)


Analysis of symmetry for initial positions (statically):
=====================================================================
 Subroutine PRICEL returns:
 Original cell was already a primitive cell.
 

 Routine SETGRP: Setting up the symmetry group for a 
 face centered cubic supercell.


 Subroutine GETGRP returns: Found 48 space group operations
 (whereof 24 operations were pure point group operations)
 out of a pool of 48 trial point group operations.


The static configuration has the point symmetry T_d .
 The point group associated with its full space group is O_h .


Analysis of symmetry for dynamics (positions and initial velocities):
=====================================================================
 Subroutine PRICEL returns:
 Original cell was already a primitive cell.
 

 Routine SETGRP: Setting up the symmetry group for a 
 face centered cubic supercell.


 Subroutine GETGRP returns: Found 48 space group operations
 (whereof 24 operations were pure point group operations)
 out of a pool of 48 trial point group operations.


The dynamic configuration has the point symmetry T_d .
 The point group associated with its full space group is O_h .


Analysis of structural, dynamic, and magnetic symmetry:
=====================================================================
 Subroutine PRICEL returns:
 Original cell was already a primitive cell.
 

 Routine SETGRP: Setting up the symmetry group for a 
 face centered cubic supercell.


 Subroutine GETGRP returns: Found 48 space group operations
 (whereof 24 operations were pure point group operations)
 out of a pool of 48 trial point group operations.


The magnetic configuration has the point symmetry T_d .
 The point group associated with its full space group is O_h .


 Subroutine INISYM returns: Found 48 space group operations
 (whereof 24 operations are pure point group operations),
 and found     1 'primitive' translations

 
 
 KPOINTS: BayesOpt4dftu: K-path from user input   
  interpolating k-points between supplied coordinates
  k-points in reciprocal lattice
Space group operators:
 irot       det(A)        alpha          n_x          n_y          n_z        tau_x        tau_y        tau_z
    1     1.000000     0.000000     1.000000     0.000000     0.000000     0.000000     0.000000     0.000000
    2     1.000000   120.000000    -0.577350    -0.577350    -0.577350     0.000000     0.000000     0.000000
    3     1.000000   120.000000     0.577350     0.577350     0.577350     0.000000     0.000000     0.000000
    4    -1.000000    90.000000     0.000000     0.000000    -1.000000     0.000000     0.000000     0.000000
    5    -1.000000   180.000000     0.000000     0.707107     0.707107     0.000000     0.000000     0.000000
    6    -1.000000    90.000000     0.000000     1.000000     0.000000     0.000000     0.000000     0.000000
    7     1.000000   180.000000     0.000000     0.000000     1.000000     0.000000     0.000000     0.000000
    8     1.000000   120.000000    -0.577350     0.577350     0.577350     0.000000     0.000000     0.000000
    9     1.000000   120.000000    -0.577350     0.577350    -0.577350     0.000000     0.000000     0.000000
   10    -1.000000    90.000000     0.000000     0.000000     1.000000     0.000000     0.000000     0.000000
   11    -1.000000    90.000000    -1.000000     0.000000     0.000000     0.000000     0.000000     0.000000
   12    -1.000000   180.000000     0.707107     0.000000     0.707107     0.000000     0.000000     0.000000
   13     1.000000   120.000000     0.577350    -0.577350     0.577350     0.000000     0.000000     0.000000
   14     1.000000   120.000000    -0.577350    -0.577350     0.577350     0.000000     0.000000     0.000000
   15     1.000000   180.000000     1.000000     0.000000     0.000000     0.000000     0.000000     0.000000
   16    -1.000000    90.000000     0.000000    -1.000000     0.000000     0.000000     0.000000     0.000000
   17    -1.000000   180.000000     0.707107     0.707107     0.000000     0.000000     0.000000     0.000000
   18    -1.000000    90.000000     1.000000     0.000000     0.000000     0.000000     0.000000     0.000000
   19     1.000000   120.000000     0.577350    -0.577350    -0.577350     0.000000     0.000000     0.000000
   20     1.000000   180.000000     0.000000     1.000000     0.000000     0.000000     0.000000     0.000000
   21     1.000000   120.000000     0.577350     0.577350    -0.577350     0.000000     0.000000     0.000000
   22    -1.000000   180.000000     0.000000    -0.707107     0.707107     0.000000     0.000000     0.000000
   23    -1.000000   180.000000     0.707107    -0.707107     0.000000     0.000000     0.000000     0.000000
   24    -1.000000   180.000000     0.707107     0.000000    -0.707107     0.000000     0.000000     0.000000
   25    -1.000000     0.000000     1.000000     0.000000     0.000000     0.250000     0.250000     0.250000
   26    -1.000000   120.000000    -0.577350    -0.577350    -0.577350     0.250000     0.250000     0.250000
   27    -1.000000   120.000000     0.577350     0.577350     0.577350     0.250000     0.250000     0.250000
   28     1.000000    90.000000     0.000000     0.000000    -1.000000     0.250000     0.250000     0.250000
   29     1.000000   180.000000     0.000000     0.707107     0.707107     0.250000     0.250000     0.250000
   30     1.000000    90.000000     0.000000     1.000000     0.000000     0.250000     0.250000     0.250000
   31    -1.000000   180.000000     0.000000     0.000000     1.000000     0.250000     0.250000     0.250000
   32    -1.000000   120.000000    -0.577350     0.577350     0.577350     0.250000     0.250000     0.250000
   33    -1.000000   120.000000    -0.577350     0.577350    -0.577350     0.250000     0.250000     0.250000
   34     1.000000    90.000000     0.000000     0.000000     1.000000     0.250000     0.250000     0.250000
   35     1.000000    90.000000    -1.000000     0.000000     0.000000     0.250000     0.250000     0.250000
   36     1.000000   180.000000     0.707107     0.000000     0.707107     0.250000     0.250000     0.250000
   37    -1.000000   120.000000     0.577350    -0.577350     0.577350     0.250000     0.250000     0.250000
   38    -1.000000   120.000000    -0.577350    -0.577350     0.577350     0.250000     0.250000     0.250000
   39    -1.000000   180.000000     1.000000     0.000000     0.000000     0.250000     0.250000     0.250000
   40     1.000000    90.000000     0.000000    -1.000000     0.000000     0.250000     0.250000     0.250000
   41     1.000000   180.000000     0.707107     0.707107     0.000000     0.250000     0.250000     0.250000
   42     1.000000    90.000000     1.000000     0.000000     0.000000     0.250000     0.250000     0.250000
   43    -1.000000   120.000000     0.577350    -0.577350    -0.577350     0.250000     0.250000     0.250000
   44    -1.000000   180.000000     0.000000     1.000000     0.000000     0.250000     0.250000     0.250000
   45    -1.000000   120.000000     0.577350     0.577350    -0.577350     0.250000     0.250000     0.250000
   46     1.000000   180.000000     0.000000    -0.707107     0.707107     0.250000     0.250000     0.250000
   47     1.000000   180.000000     0.707107    -0.707107     0.000000     0.250000     0.250000     0.250000
   48     1.000000   180.000000     0.707107     0.000000    -0.707107     0.250000     0.250000     0.250000


--------------------------------------------------------------------------------------------------------




 Dimension of arrays:
   k-points           NKPTS =    100   k-points in BZ     NKDIM =    100   number of bands    NBANDS=     54
   number of dos      NEDOS =    301   number of ions     NIONS =      2
   non local maximal  LDIM  =      6   non local SUM 2l+1 LMDIM =     18
   total plane-waves  NPLWV =  13824
   max r-space proj   IRMAX =      1   max aug-charges    IRDMAX=  10603
   dimension x,y,z NGX =    24 NGY =   24 NGZ =   24
   dimension x,y,z NGXF=    48 NGYF=   48 NGZF=   48
   support grid    NGXF=    48 NGYF=   48 NGZF=   48
   ions per type =               2
   NGX,Y,Z   is equivalent  to a cutoff of  10.02, 10.02, 10.02 a.u.
   NGXF,Y,Z  is equivalent  to a cutoff of  20.03, 20.03, 20.03 a.u.

 SYSTEM =  unknown system                          
 POSCAR =  Ge                                      

 Startparameter for this run:
   NWRITE =      2    write-flag & timer
   PREC   = n         normal or accurate (medium, high low for compatibility)
   ISTART =      1    job   : 0-new  1-cont  2-samecut
   ICHARG =     11    charge: 1-file 2-atom 10-const
   ISPIN  =      2    spin polarized calculation?
   LNONCOLLINEAR =      F non collinear calculations
   LSORBIT =      F    spin-orbit coupling
   INIWAV =      1    electr: 0-lowe 1-rand  2-diag
   LASPH  =      F    aspherical Exc in radial PAW
   METAGGA=      F    non-selfconsistent MetaGGA calc.

 Electronic Relaxation 1
   ENCUT  =  450.0 eV  33.07 Ry    5.75 a.u.   6.89  6.89  6.89*2*pi/ulx,y,z
   ENINI  =  450.0     initial cutoff
   ENAUG  =  531.4 eV  augmentation charge cutoff
   NELM   =     60;   NELMIN=  2; NELMDL=  0     # of ELM steps 
   EDIFF  = 0.1E-03   stopping-criterion for ELM
   LREAL  =      F    real-space projection
   NLSPLINE    = F    spline interpolate recip. space projectors
   LCOMPAT=      F    compatible to vasp.4.4
   GGA_COMPAT  = T    GGA compatible to vasp.4.4-vasp.4.6
   LMAXPAW     = -100 max onsite density
   LMAXMIX     =    2 max onsite mixed and CHGCAR
   VOSKOWN=      0    Vosko Wilk Nusair interpolation
   ROPT   =    0.00000
 Ionic relaxation
   EDIFFG = 0.1E-02   stopping-criterion for IOM
   NSW    =      0    number of steps for IOM
   NBLOCK =      1;   KBLOCK =      1    inner block; outer block 
   IBRION =     -1    ionic relax: 0-MD 1-quasi-New 2-CG
   NFREE  =      0    steps in history (QN), initial steepest desc. (CG)
   ISIF   =      2    stress and relaxation
   IWAVPR =     10    prediction:  0-non 1-charg 2-wave 3-comb
   ISYM   =      2    0-nonsym 1-usesym 2-fastsym
   LCORR  =      T    Harris-Foulkes like correction to forces

   POTIM  = 0.5000    time-step for ionic-motion
   TEIN   =    0.0    initial temperature
   TEBEG  =    0.0;   TEEND  =   0.0 temperature during run
   SMASS  =  -3.00    Nose mass-parameter (am)
   estimated Nose-frequenzy (Omega)   =  0.10E-29 period in steps =****** mass=  -0.363E-27a.u.
   SCALEE = 1.0000    scale energy and forces
   NPACO  =    256;   APACO  = 16.0  distance and # of slots for P.C.
   PSTRESS=    0.0 pullay stress

  Mass of Ions in am
   POMASS =  72.61
  Ionic Valenz
   ZVAL   =  14.00
  Atomic Wigner-Seitz radii
   RWIGS  =  -1.00
  virtual crystal weights 
   VCA    =   1.00
   NELECT =      28.0000    total number of electrons
   NUPDOWN=      -1.0000    fix difference up-down

 DOS related values:
   EMIN   =  10.00;   EMAX   =-10.00  energy-range for DOS
   EFERMI =   0.00
   ISMEAR =     0;   SIGMA  =   0.05  broadening in eV -4-tet -1-fermi 0-gaus

 Electronic relaxation 2 (details)
   IALGO  =     53    algorithm
   LDIAG  =      T    sub-space diagonalisation (order eigenvalues)
   LSUBROT=      F    optimize rotation matrix (better conditioning)
   TURBO    =      0    0=normal 1=particle mesh
   IRESTART =      0    0=no restart 2=restart with 2 vectors
   NREBOOT  =      0    no. of reboots
   NMIN     =      0    reboot dimension
   EREF     =   0.00    reference energy to select bands
   IMIX   =      4    mixing-type and parameters
     AMIX     =   0.40;   BMIX     =  1.00
     AMIX_MAG =   1.60;   BMIX_MAG =  1.00
     AMIN     =   0.10
     WC   =   100.;   INIMIX=   1;  MIXPRE=   1;  MAXMIX= -45

 Intra band minimization:
   WEIMIN = 0.0000     energy-eigenvalue tresh-hold
   EBREAK =  0.46E-06  absolut break condition
   DEPER  =   0.30     relativ break condition  

   TIME   =   0.40     timestep for ELM

  volume/ion in A,a.u.               =      22.34       150.77
  Fermi-wavevector in a.u.,A,eV,Ry     =   1.400902  2.647321 26.701793  1.962526
  Thomas-Fermi vector in A             =   2.523816
 
 Write flags
   LWAVE        =      F    write WAVECAR
   LDOWNSAMPLE  =      F    k-point downsampling of WAVECAR
   LCHARG       =      F    write CHGCAR
   LVTOT        =      F    write LOCPOT, total local potential
   LVHAR        =      F    write LOCPOT, Hartree potential only
   LELF         =      F    write electronic localiz. function (ELF)
   LORBIT       =     11    0 simple, 1 ext, 2 COOP (PROOUT), +10 PAW based schemes


 Dipole corrections
   LMONO  =      F    monopole corrections only (constant potential shift)
   LDIPOL =      F    correct potential (dipole corrections)
   IDIPOL =      0    1-x, 2-y, 3-z, 4-all directions 
   EPSILON=  1.0000000 bulk dielectric constant

 LDA+U is selected, type is set to LDAUTYPE =  2
   angular momentum for each species LDAUL =     1
   U (eV)           for each species LDAUU =  -2.3
   J (eV)           for each species LDAUJ =   0.0
 Exchange correlation treatment:
   GGA     =    PE    GGA type
   LEXCH   =     8    internal setting for exchange type
   VOSKOWN=      0    Vosko Wilk Nusair interpolation
   LHFCALC =     F    Hartree Fock is set to
   LHFONE  =     F    Hartree Fock one center treatment
   AEXX    =    0.0000 exact exchange contribution

 Linear response parameters
   LEPSILON=     F    determine dielectric tensor
   LRPA    =     F    only Hartree local field effects (RPA)
   LNABLA  =     F    use nabla operator in PAW spheres
   LVEL    =     F    velocity operator in full k-point grid
   LINTERFAST=   F  fast interpolation
   KINTER  =     0    interpolate to denser k-point grid
   CSHIFT  =0.1000    complex shift for real part using Kramers Kronig
   OMEGAMAX=  -1.0    maximum frequency
   DEG_THRESHOLD= 0.2000000E-02 threshold for treating states as degnerate
   RTIME   =   -0.100 relaxation time in fs
  (WPLASMAI=    0.000 imaginary part of plasma frequency in eV, 0.658/RTIME)
   DFIELD  = 0.0000000 0.0000000 0.0000000 field for delta impulse in time
 
 Orbital magnetization related:
   ORBITALMAG=     F  switch on orbital magnetization
   LCHIMAG   =     F  perturbation theory with respect to B field
   DQ        =  0.001000  dq finite difference perturbation B field
   LLRAUG    =     F  two centre corrections for induced B field



--------------------------------------------------------------------------------------------------------


 Static calculation
 charge density and potential remain constant during run
 spin polarized calculation
 Conjugate gradient for all bands (Freysoldt, et al. PRB 79, 241103 (2009))
 perform sub-space diagonalisation
    before iterative eigenvector-optimisation
 no mixing
 using additional bands           40
 reciprocal scheme for non local part
 use partial core corrections
 calculate Harris-corrections to forces 
   (improved forces if not selfconsistent)
 use gradient corrections 
 WARNING: stress and forces are not correct
  (second derivative of E(xc) not defined)
 use of overlap-Matrix (Vanderbilt PP)
 Gauss-broadening in eV      SIGMA  =   0.05


--------------------------------------------------------------------------------------------------------


  energy-cutoff  :      450.00
  volume of cell :       44.68
      direct lattice vectors                 reciprocal lattice vectors
     0.000000000  2.816500000  2.816500000    -0.177525297  0.177525297  0.177525297
     2.816500000  0.000000000  2.816500000     0.177525297 -0.177525297  0.177525297
     2.816500000  2.816500000  0.000000000     0.177525297  0.177525297 -0.177525297

  length of vectors
     3.983132498  3.983132498  3.983132498     0.307482835  0.307482835  0.307482835


 
 old parameters found on file WAVECAR:
  energy-cutoff  :      450.00
  volume of cell :       44.68
      direct lattice vectors                 reciprocal lattice vectors
     0.000000000  2.816500000  2.816500000    -0.177525297  0.177525297  0.177525297
     2.816500000  0.000000000  2.816500000     0.177525297 -0.177525297  0.177525297
     2.816500000  2.816500000  0.000000000     0.177525297  0.177525297 -0.177525297

  length of vectors

 
 k-points in units of 2pi/SCALE and weight: BayesOpt4dftu: K-path from user input   
   0.08876265  0.08876265  0.08876265       0.010
   0.08695117  0.08695117  0.08695117       0.010
   0.08513968  0.08513968  0.08513968       0.010
   0.08332820  0.08332820  0.08332820       0.010
   0.08151672  0.08151672  0.08151672       0.010
   0.07970524  0.07970524  0.07970524       0.010
   0.07789375  0.07789375  0.07789375       0.010
   0.07608227  0.07608227  0.07608227       0.010
   0.07427079  0.07427079  0.07427079       0.010
   0.07245931  0.07245931  0.07245931       0.010
   0.07064782  0.07064782  0.07064782       0.010
   0.06883634  0.06883634  0.06883634       0.010
   0.06702486  0.06702486  0.06702486       0.010
   0.06521337  0.06521337  0.06521337       0.010
   0.06340189  0.06340189  0.06340189       0.010
   0.06159041  0.06159041  0.06159041       0.010
   0.05977893  0.05977893  0.05977893       0.010
   0.05796744  0.05796744  0.05796744       0.010
   0.05615596  0.05615596  0.05615596       0.010
   0.05434448  0.05434448  0.05434448       0.010
   0.05253300  0.05253300  0.05253300       0.010
   0.05072151  0.05072151  0.05072151       0.010
   0.04891003  0.04891003  0.04891003       0.010
   0.04709855  0.04709855  0.04709855       0.010
   0.04528707  0.04528707  0.04528707       0.010
   0.04347558  0.04347558  0.04347558       0.010
   0.04166410  0.04166410  0.04166410       0.010
   0.03985262  0.03985262  0.03985262       0.010
   0.03804114  0.03804114  0.03804114       0.010
   0.03622965  0.03622965  0.03622965       0.010
   0.03441817  0.03441817  0.03441817       0.010
   0.03260669  0.03260669  0.03260669       0.010
   0.03079520  0.03079520  0.03079520       0.010
   0.02898372  0.02898372  0.02898372       0.010
   0.02717224  0.02717224  0.02717224       0.010
   0.02536076  0.02536076  0.02536076       0.010
   0.02354927  0.02354927  0.02354927       0.010
   0.02173779  0.02173779  0.02173779       0.010
   0.01992631  0.01992631  0.01992631       0.010
   0.01811483  0.01811483  0.01811483       0.010
   0.01630334  0.01630334  0.01630334       0.010
   0.01449186  0.01449186  0.01449186       0.010
   0.01268038  0.01268038  0.01268038       0.010
   0.01086890  0.01086890  0.01086890       0.010
   0.00905741  0.00905741  0.00905741       0.010
   0.00724593  0.00724593  0.00724593       0.010
   0.00543445  0.00543445  0.00543445       0.010
   0.00362297  0.00362297  0.00362297       0.010
   0.00181148  0.00181148  0.00181148       0.010
   0.00000000  0.00000000  0.00000000       0.010
   0.00000000  0.00000000  0.00000000       0.010
   0.00000000  0.00362297  0.00000000       0.010
   0.00000000  0.00724593  0.00000000       0.010
   0.00000000  0.01086890  0.00000000       0.010
   0.00000000  0.01449186  0.00000000       0.010
   0.00000000  0.01811483  0.00000000       0.010
   0.00000000  0.02173779  0.00000000       0.010
   0.00000000  0.02536076  0.00000000       0.010
   0.00000000  0.02898372  0.00000000       0.010
   0.00000000  0.03260669  0.00000000       0.010
   0.00000000  0.03622965  0.00000000       0.010
   0.00000000  0.03985262  0.00000000       0.010
   0.00000000  0.04347558  0.00000000       0.010
   0.00000000  0.04709855  0.00000000       0.010
   0.00000000  0.05072151  0.00000000       0.010
   0.00000000  0.05434448  0.00000000       0.010
   0.00000000  0.05796744  0.00000000       0.010
   0.00000000  0.06159041  0.00000000       0.010
   0.00000000  0.06521337  0.00000000       0.010
   0.00000000  0.06883634  0.00000000       0.010
   0.00000000  0.07245931  0.00000000       0.010
   0.00000000  0.07608227  0.00000000       0.010
   0.00000000  0.07970524  0.00000000       0.010
   0.00000000  0.08332820  0.00000000       0.010
   0.00000000  0.08695117  0.00000000       0.010
   0.00000000  0.09057413  0.00000000       0.010
   0.00000000  0.09419710  0.00000000       0.010
   0.00000000  0.09782006  0.00000000       0.010
   0.00000000  0.10144303  0.00000000       0.010
   0.00000000  0.10506599  0.00000000       0.010
   0.00000000  0.10868896  0.00000000       0.010
   0.00000000  0.11231192  0.00000000       0.010
   0.00000000  0.11593489  0.00000000       0.010
   0.00000000  0.11955785  0.00000000       0.010
   0.00000000  0.12318082  0.00000000       0.010
   0.00000000  0.12680378  0.00000000       0.010
   0.00000000  0.13042675  0.00000000       0.010
   0.00000000  0.13404971  0.00000000       0.010
   0.00000000  0.13767268  0.00000000       0.010
   0.00000000  0.14129564  0.00000000       0.010
   0.00000000  0.14491861  0.00000000       0.010
   0.00000000  0.14854158  0.00000000       0.010
   0.00000000  0.15216454  0.00000000       0.010
   0.00000000  0.15578751  0.00000000       0.010
   0.00000000  0.15941047  0.00000000       0.010
   0.00000000  0.16303344  0.00000000       0.010
   0.00000000  0.16665640  0.00000000       0.010
   0.00000000  0.17027937  0.00000000       0.010
   0.00000000  0.17390233  0.00000000       0.010
   0.00000000  0.17752530  0.00000000       0.010
 
 k-points in reciprocal lattice and weights: BayesOpt4dftu: K-path from user input   
   0.50000000  0.50000000  0.50000000       0.010
   0.48979592  0.48979592  0.48979592       0.010
   0.47959184  0.47959184  0.47959184       0.010
   0.46938776  0.46938776  0.46938776       0.010
   0.45918367  0.45918367  0.45918367       0.010
   0.44897959  0.44897959  0.44897959       0.010
   0.43877551  0.43877551  0.43877551       0.010
   0.42857143  0.42857143  0.42857143       0.010
   0.41836735  0.41836735  0.41836735       0.010
   0.40816327  0.40816327  0.40816327       0.010
   0.39795918  0.39795918  0.39795918       0.010
   0.38775510  0.38775510  0.38775510       0.010
   0.37755102  0.37755102  0.37755102       0.010
   0.36734694  0.36734694  0.36734694       0.010
   0.35714286  0.35714286  0.35714286       0.010
   0.34693878  0.34693878  0.34693878       0.010
   0.33673469  0.33673469  0.33673469       0.010
   0.32653061  0.32653061  0.32653061       0.010
   0.31632653  0.31632653  0.31632653       0.010
   0.30612245  0.30612245  0.30612245       0.010
   0.29591837  0.29591837  0.29591837       0.010
   0.28571429  0.28571429  0.28571429       0.010
   0.27551020  0.27551020  0.27551020       0.010
   0.26530612  0.26530612  0.26530612       0.010
   0.25510204  0.25510204  0.25510204       0.010
   0.24489796  0.24489796  0.24489796       0.010
   0.23469388  0.23469388  0.23469388       0.010
   0.22448980  0.22448980  0.22448980       0.010
   0.21428571  0.21428571  0.21428571       0.010
   0.20408163  0.20408163  0.20408163       0.010
   0.19387755  0.19387755  0.19387755       0.010
   0.18367347  0.18367347  0.18367347       0.010
   0.17346939  0.17346939  0.17346939       0.010
   0.16326531  0.16326531  0.16326531       0.010
   0.15306122  0.15306122  0.15306122       0.010
   0.14285714  0.14285714  0.14285714       0.010
   0.13265306  0.13265306  0.13265306       0.010
   0.12244898  0.12244898  0.12244898       0.010
   0.11224490  0.11224490  0.11224490       0.010
   0.10204082  0.10204082  0.10204082       0.010
   0.09183673  0.09183673  0.09183673       0.010
   0.08163265  0.08163265  0.08163265       0.010
   0.07142857  0.07142857  0.07142857       0.010
   0.06122449  0.06122449  0.06122449       0.010
   0.05102041  0.05102041  0.05102041       0.010
   0.04081633  0.04081633  0.04081633       0.010
   0.03061224  0.03061224  0.03061224       0.010
   0.02040816  0.02040816  0.02040816       0.010
   0.01020408  0.01020408  0.01020408       0.010
   0.00000000  0.00000000  0.00000000       0.010
   0.00000000  0.00000000  0.00000000       0.010
   0.01020408  0.00000000  0.01020408       0.010
   0.02040816  0.00000000  0.02040816       0.010
   0.03061224  0.00000000  0.03061224       0.010
   0.04081633  0.00000000  0.04081633       0.010
   0.05102041  0.00000000  0.05102041       0.010
   0.06122449  0.00000000  0.06122449       0.010
   0.07142857  0.00000000  0.07142857       0.010
   0.08163265  0.00000000  0.08163265       0.010
   0.09183673  0.00000000  0.09183673       0.010
   0.10204082  0.00000000  0.10204082       0.010
   0.11224490  0.00000000  0.11224490       0.010
   0.12244898  0.00000000  0.12244898       0.010
   0.13265306  0.00000000  0.13265306       0.010
   0.14285714  0.00000000  0.14285714       0.010
   0.15306122  0.00000000  0.15306122       0.010
   0.16326531  0.00000000  0.16326531       0.010
   0.17346939  0.00000000  0.17346939       0.010
   0.18367347  0.00000000  0.18367347       0.010
   0.19387755  0.00000000  0.19387755       0.010
   0.20408163  0.00000000  0.20408163       0.010
   0.21428571  0.00000000  0.21428571       0.010
   0.22448980  0.00000000  0.22448980       0.010
   0.23469388  0.00000000  0.23469388       0.010
   0.24489796  0.00000000  0.24489796       0.010
   0.25510204  0.00000000  0.25510204       0.010
   0.26530612  0.00000000  0.26530612       0.010
   0.27551020  0.00000000  0.27551020       0.010
   0.28571429  0.00000000  0.28571429       0.010
   0.29591837  0.00000000  0.29591837       0.010
   0.30612245  0.00000000  0.30612245       0.010
   0.31632653  0.00000000  0.31632653       0.010
   0.32653061  0.00000000  0.32653061       0.010
   0.33673469  0.00000000  0.33673469       0.010
   0.34693878  0.00000000  0.34693878       0.010
   0.35714286  0.00000000  0.35714286       0.010
   0.36734694  0.00000000  0.36734694       0.010
   0.37755102  0.00000000  0.37755102       0.010
   0.38775510  0.00000000  0.38775510       0.010
   0.39795918  0.00000000  0.39795918       0.010
   0.40816327  0.00000000  0.40816327       0.010
   0.41836735  0.00000000  0.41836735       0.010
   0.42857143  0.00000000  0.42857143       0.010
   0.43877551  0.00000000  0.43877551       0.010
   0.44897959  0.00000000  0.44897959       0.010
   0.45918367  0.00000000  0.45918367       0.010
   0.46938776  0.00000000  0.46938776       0.010
   0.47959184  0.00000000  0.47959184       0.010
   0.48979592  0.00000000  0.48979592       0.010
   0.50000000  0.00000000  0.50000000       0.010
 
 position of ions in fractional coordinates (direct lattice) 
   0.00000000  0.00000000  0.00000000
   0.25000000  0.25000000  0.25000000
 
 position of ions in cartesian coordinates  (Angst):
   0.00000000  0.00000000  0.00000000
   1.40825000  1.40825000  1.40825000
 


--------------------------------------------------------------------------------------------------------


 k-point  1 :   0.5000 0.5000 0.5000  plane waves:     978
 k-point  2 :   0.4898 0.4898 0.4898  plane waves:     969
 k-point  3 :   0.4796 0.4796 0.4796  plane waves:     969
 k-point  4 :   0.4694 0.4694 0.4694  plane waves:     969
 k-point  5 :   0.4592 0.4592 0.4592  plane waves:     969
 k-point  6 :   0.4490 0.4490 0.4490  plane waves:     969
 k-point  7 :   0.4388 0.4388 0.4388  plane waves:     969
 k-point  8 :   0.4286 0.4286 0.4286  plane waves:     969
 k-point  9 :   0.4184 0.4184 0.4184  plane waves:     963
 k-point 10 :   0.4082 0.4082 0.4082  plane waves:     963
 k-point 11 :   0.3980 0.3980 0.3980  plane waves:     966
 k-point 12 :   0.3878 0.3878 0.3878  plane waves:     954
 k-point 13 :   0.3776 0.3776 0.3776  plane waves:     960
 k-point 14 :   0.3673 0.3673 0.3673  plane waves:     965
 k-point 15 :   0.3571 0.3571 0.3571  plane waves:     962
 k-point 16 :   0.3469 0.3469 0.3469  plane waves:     968
 k-point 17 :   0.3367 0.3367 0.3367  plane waves:     968
 k-point 18 :   0.3265 0.3265 0.3265  plane waves:     968
 k-point 19 :   0.3163 0.3163 0.3163  plane waves:     968
 k-point 20 :   0.3061 0.3061 0.3061  plane waves:     962
 k-point 21 :   0.2959 0.2959 0.2959  plane waves:     962
 k-point 22 :   0.2857 0.2857 0.2857  plane waves:     956
 k-point 23 :   0.2755 0.2755 0.2755  plane waves:     956
 k-point 24 :   0.2653 0.2653 0.2653  plane waves:     962
 k-point 25 :   0.2551 0.2551 0.2551  plane waves:     959
 k-point 26 :   0.2449 0.2449 0.2449  plane waves:     959
 k-point 27 :   0.2347 0.2347 0.2347  plane waves:     953
 k-point 28 :   0.2245 0.2245 0.2245  plane waves:     953
 k-point 29 :   0.2143 0.2143 0.2143  plane waves:     953
 k-point 30 :   0.2041 0.2041 0.2041  plane waves:     956
 k-point 31 :   0.1939 0.1939 0.1939  plane waves:     956
 k-point 32 :   0.1837 0.1837 0.1837  plane waves:     950
 k-point 33 :   0.1735 0.1735 0.1735  plane waves:     956
 k-point 34 :   0.1633 0.1633 0.1633  plane waves:     956
 k-point 35 :   0.1531 0.1531 0.1531  plane waves:     953
 k-point 36 :   0.1429 0.1429 0.1429  plane waves:     959
 k-point 37 :   0.1327 0.1327 0.1327  plane waves:     953
 k-point 38 :   0.1224 0.1224 0.1224  plane waves:     953
 k-point 39 :   0.1122 0.1122 0.1122  plane waves:     950
 k-point 40 :   0.1020 0.1020 0.1020  plane waves:     950
 k-point 41 :   0.0918 0.0918 0.0918  plane waves:     950
 k-point 42 :   0.0816 0.0816 0.0816  plane waves:     950
 k-point 43 :   0.0714 0.0714 0.0714  plane waves:     950
 k-point 44 :   0.0612 0.0612 0.0612  plane waves:     944
 k-point 45 :   0.0510 0.0510 0.0510  plane waves:     944
 k-point 46 :   0.0408 0.0408 0.0408  plane waves:     944
 k-point 47 :   0.0306 0.0306 0.0306  plane waves:     941
 k-point 48 :   0.0204 0.0204 0.0204  plane waves:     941
 k-point 49 :   0.0102 0.0102 0.0102  plane waves:     941
 k-point 50 :   0.0000 0.0000 0.0000  plane waves:     941
 k-point 51 :   0.0000 0.0000 0.0000  plane waves:     941
 k-point 52 :   0.0102 0.0000 0.0102  plane waves:     941
 k-point 53 :   0.0204 0.0000 0.0204  plane waves:     941
 k-point 54 :   0.0306 0.0000 0.0306  plane waves:     941
 k-point 55 :   0.0408 0.0000 0.0408  plane waves:     945
 k-point 56 :   0.0510 0.0000 0.0510  plane waves:     945
 k-point 57 :   0.0612 0.0000 0.0612  plane waves:     945
 k-point 58 :   0.0714 0.0000 0.0714  plane waves:     953
 k-point 59 :   0.0816 0.0000 0.0816  plane waves:     953
 k-point 60 :   0.0918 0.0000 0.0918  plane waves:     953
 k-point 61 :   0.1020 0.0000 0.1020  plane waves:     953
 k-point 62 :   0.1122 0.0000 0.1122  plane waves:     945
 k-point 63 :   0.1224 0.0000 0.1224  plane waves:     949
 k-point 64 :   0.1327 0.0000 0.1327  plane waves:     950
 k-point 65 :   0.1429 0.0000 0.1429  plane waves:     950
 k-point 66 :   0.1531 0.0000 0.1531  plane waves:     962
 k-point 67 :   0.1633 0.0000 0.1633  plane waves:     966
 k-point 68 :   0.1735 0.0000 0.1735  plane waves:     966
 k-point 69 :   0.1837 0.0000 0.1837  plane waves:     966
 k-point 70 :   0.1939 0.0000 0.1939  plane waves:     966
 k-point 71 :   0.2041 0.0000 0.2041  plane waves:     966
 k-point 72 :   0.2143 0.0000 0.2143  plane waves:     974
 k-point 73 :   0.2245 0.0000 0.2245  plane waves:     978
 k-point 74 :   0.2347 0.0000 0.2347  plane waves:     982
 k-point 75 :   0.2449 0.0000 0.2449  plane waves:     982
 k-point 76 :   0.2551 0.0000 0.2551  plane waves:     982
 k-point 77 :   0.2653 0.0000 0.2653  plane waves:     982
 k-point 78 :   0.2755 0.0000 0.2755  plane waves:     982
 k-point 79 :   0.2857 0.0000 0.2857  plane waves:     974
 k-point 80 :   0.2959 0.0000 0.2959  plane waves:     982
 k-point 81 :   0.3061 0.0000 0.3061  plane waves:     974
 k-point 82 :   0.3163 0.0000 0.3163  plane waves:     974
 k-point 83 :   0.3265 0.0000 0.3265  plane waves:     970
 k-point 84 :   0.3367 0.0000 0.3367  plane waves:     962
 k-point 85 :   0.3469 0.0000 0.3469  plane waves:     966
 k-point 86 :   0.3571 0.0000 0.3571  plane waves:     974
 k-point 87 :   0.3673 0.0000 0.3673  plane waves:     974
 k-point 88 :   0.3776 0.0000 0.3776  plane waves:     974
 k-point 89 :   0.3878 0.0000 0.3878  plane waves:     974
 k-point 90 :   0.3980 0.0000 0.3980  plane waves:     978
 k-point 91 :   0.4082 0.0000 0.4082  plane waves:     978
 k-point 92 :   0.4184 0.0000 0.4184  plane waves:     978
 k-point 93 :   0.4286 0.0000 0.4286  plane waves:     978
 k-point 94 :   0.4388 0.0000 0.4388  plane waves:     978
 k-point 95 :   0.4490 0.0000 0.4490  plane waves:     974
 k-point 96 :   0.4592 0.0000 0.4592  plane waves:     974
 k-point 97 :   0.4694 0.0000 0.4694  plane waves:     982
 k-point 98 :   0.4796 0.0000 0.4796  plane waves:     982
 k-point 99 :   0.4898 0.0000 0.4898  plane waves:     982
 k-point ** :   0.5000 0.0000 0.5000  plane waves:     982

 maximum and minimum number of plane-waves per node :       335      308

 maximum number of plane-waves:       982
 maximum index in each direction: 
   IXMAX=    6   IYMAX=    6   IZMAX=    6
   IXMIN=   -7   IYMIN=   -7   IZMIN=   -7


 parallel 3D FFT for wavefunctions:
    minimum data exchange during FFTs selected (reduces bandwidth)
 parallel 3D FFT for charge:
    minimum data exchange during FFTs selected (reduces bandwidth)


 total amount of memory used by VASP MPI-rank0    96368. kBytes
=======================================================================

   base      :      30000. kBytes
   nonl-proj :       4719. kBytes
   fftplans  :        600. kBytes
   grid      :       1402. kBytes
   one-center:         31. kBytes
   wavefun   :      59616. kBytes
 
     INWAV:  cpu time    0.5695: real time    0.5888
 initial charge density was supplied:
 number of electron      27.9999915 magnetization      -0.0000000
 keeping initial charge density in first step


--------------------------------------------------------------------------------------------------------


 Maximum index for augmentation-charges         1486 (set IRDMAX)


--------------------------------------------------------------------------------------------------------


 First call to EWALD:  gamma=   0.499
 Maximum number of real-space cells 3x 3x 3
 Maximum number of reciprocal cells 3x 3x 3

    FEWALD:  cpu time    0.0019: real time    0.0019


--------------------------------------- Iteration      1(   1)  ---------------------------------------


    POTLOK:  cpu time    0.0122: real time    0.0590
    SETDIJ:  cpu time    0.0994: real time    0.1026
    TRIAL :  cpu time    0.3655: real time    0.3946
    CORREC:  cpu time    0.0009: real time    0.0009
    --------------------------------------------
      LOOP:  cpu time    0.5121: real time    0.5956

 eigenvalue-minimisations  :     0
 total energy-change (2. order) : 0.1004624E+03  (-0.5295226E+02)
 number of electron      27.9999915 magnetization      -0.0000000
 augmentation part       27.9999915 magnetization      -0.0000000

 Free energy of the ion-electron system (eV)
  ---------------------------------------------------
  alpha Z        PSCENC =       131.13230232
  Ewald energy   TEWEN  =     -2699.00129049
  -Hartree energ DENC   =     -1509.05935128
  -exchange      EXHF   =         0.00000000
  -V(xc)+E(xc)   XCENC  =       145.87355606
  PAW double counting   =      4746.36796906    -5623.20081930
  entropy T*S    EENTRO =        -0.00000000
  eigenvalues    EBANDS =      -284.11505310
  atomic energy  EATOM  =      5192.46507749
  ---------------------------------------------------
  free energy    TOTEN  =       100.46239078 eV

  energy without entropy =      100.46239078  energy(sigma->0) =      100.46239078


--------------------------------------------------------------------------------------------------------




--------------------------------------- Iteration      1(   2)  ---------------------------------------


    TRIAL :  cpu time    0.3298: real time    0.3340
    CORREC:  cpu time    0.0008: real time    0.0008
    --------------------------------------------
      LOOP:  cpu time    0.3309: real time    0.3351

 eigenvalue-minimisations  :     0
 total energy-change (2. order) :-0.3744634E+02  (-0.2705289E+02)
 number of electron      27.9999915 magnetization      -0.0000000
 augmentation part       27.9999915 magnetization      -0.0000000

 Free energy of the ion-electron system (eV)
  ---------------------------------------------------
  alpha Z        PSCENC =       131.13230232
  Ewald energy   TEWEN  =     -2699.00129049
  -Hartree energ DENC   =     -1509.05935128
  -exchange      EXHF   =         0.00000000
  -V(xc)+E(xc)   XCENC  =       145.87355606
  PAW double counting   =      4746.36796906    -5623.20081930
  entropy T*S    EENTRO =        -0.00000000
  eigenvalues    EBANDS =      -321.56139390
  atomic energy  EATOM  =      5192.46507749
  ---------------------------------------------------
  free energy    TOTEN  =        63.01604997 eV

  energy without entropy =       63.01604997  energy(sigma->0) =       63.01604997


--------------------------------------------------------------------------------------------------------




--------------------------------------- Iteration      1(   3)  ---------------------------------------


    TRIAL :  cpu time    0.3252: real time    0.3291
    CORREC:  cpu time    0.0017: real time    0.0018
    --------------------------------------------
      LOOP:  cpu time    0.3272: real time    0.3311

 eigenvalue-minimisations  :     0
 total energy-change (2. order) :-0.2309281E+02  (-0.1880912E+02)
 number of electron      27.9999915 magnetization      -0.0000000
 augmentation part       27.9999915 magnetization      -0.0000000

 Free energy of the ion-electron system (eV)
  ---------------------------------------------------
  alpha Z        PSCENC =       131.13230232
  Ewald energy   TEWEN  =     -2699.00129049
  -Hartree energ DENC   =     -1509.05935128
  -exchange      EXHF   =         0.00000000
  -V(xc)+E(xc)   XCENC  =       145.87355606
  PAW double counting   =      4746.36796906    -5623.20081930
  entropy T*S    EENTRO =        -0.00072973
  eigenvalues    EBANDS =      -344.65420194
  atomic energy  EATOM  =      5192.46507749
  ---------------------------------------------------
  free energy    TOTEN  =        39.92324193 eV

  energy without entropy =       39.92397166  energy(sigma->0) =       39.92360680


--------------------------------------------------------------------------------------------------------




--------------------------------------- Iteration      1(   4)  ---------------------------------------


    TRIAL :  cpu time    0.3317: real time    0.3358
    CORREC:  cpu time    0.0020: real time    0.0020
    --------------------------------------------
      LOOP:  cpu time    0.3340: real time    0.3382

 eigenvalue-minimisations  :     0
 total energy-change (2. order) :-0.1835254E+02  (-0.1339992E+02)
 number of electron      27.9999915 magnetization      -0.0000000
 augmentation part       27.9999915 magnetization      -0.0000000

 Free energy of the ion-electron system (eV)
  ---------------------------------------------------
  alpha Z        PSCENC =       131.13230232
  Ewald energy   TEWEN  =     -2699.00129049
  -Hartree energ DENC   =     -1509.05935128
  -exchange      EXHF   =         0.00000000
  -V(xc)+E(xc)   XCENC  =       145.87355606
  PAW double counting   =      4746.36796906    -5623.20081930
  entropy T*S    EENTRO =        -0.00266814
  eigenvalues    EBANDS =      -363.00601635
  atomic energy  EATOM  =      5192.46507749
  ---------------------------------------------------
  free energy    TOTEN  =        21.57069780 eV

  energy without entropy =       21.57336594  energy(sigma->0) =       21.57203187


--------------------------------------------------------------------------------------------------------




--------------------------------------- Iteration      1(   5)  ---------------------------------------


    TRIAL :  cpu time    0.3266: real time    0.3305
    CORREC:  cpu time    0.0019: real time    0.0019
    --------------------------------------------
      LOOP:  cpu time    0.3288: real time    0.3327

 eigenvalue-minimisations  :     0
 total energy-change (2. order) :-0.1160130E+02  (-0.9309281E+01)
 number of electron      27.9999915 magnetization      -0.0000000
 augmentation part       27.9999915 magnetization      -0.0000000

 Free energy of the ion-electron system (eV)
  ---------------------------------------------------
  alpha Z        PSCENC =       131.13230232
  Ewald energy   TEWEN  =     -2699.00129049
  -Hartree energ DENC   =     -1509.05935128
  -exchange      EXHF   =         0.00000000
  -V(xc)+E(xc)   XCENC  =       145.87355606
  PAW double counting   =      4746.36796906    -5623.20081930
  entropy T*S    EENTRO =        -0.00184090
  eigenvalues    EBANDS =      -374.60537427
  atomic energy  EATOM  =      5192.46507749
  ---------------------------------------------------
  free energy    TOTEN  =         9.96940146 eV

  energy without entropy =        9.97124237  energy(sigma->0) =        9.97032191


--------------------------------------------------------------------------------------------------------




--------------------------------------- Iteration      1(   6)  ---------------------------------------


    TRIAL :  cpu time    0.3237: real time    0.3275
    CORREC:  cpu time    0.0018: real time    0.0018
    --------------------------------------------
      LOOP:  cpu time    0.3258: real time    0.3296

 eigenvalue-minimisations  :     0
 total energy-change (2. order) :-0.7640969E+01  (-0.4172028E+01)
 number of electron      27.9999915 magnetization      -0.0000000
 augmentation part       27.9999915 magnetization      -0.0000000

 Free energy of the ion-electron system (eV)
  ---------------------------------------------------
  alpha Z        PSCENC =       131.13230232
  Ewald energy   TEWEN  =     -2699.00129049
  -Hartree energ DENC   =     -1509.05935128
  -exchange      EXHF   =         0.00000000
  -V(xc)+E(xc)   XCENC  =       145.87355606
  PAW double counting   =      4746.36796906    -5623.20081930
  entropy T*S    EENTRO =        -0.00181962
  eigenvalues    EBANDS =      -382.24717041
  atomic energy  EATOM  =      5192.46507749
  ---------------------------------------------------
  free energy    TOTEN  =         2.32843256 eV

  energy without entropy =        2.33025218  energy(sigma->0) =        2.32934237


--------------------------------------------------------------------------------------------------------




--------------------------------------- Iteration      1(   7)  ---------------------------------------


    TRIAL :  cpu time    0.3234: real time    0.3270
    CORREC:  cpu time    0.0017: real time    0.0017
    --------------------------------------------
      LOOP:  cpu time    0.3253: real time    0.3290

 eigenvalue-minimisations  :     0
 total energy-change (2. order) :-0.3422624E+01  (-0.1894828E+01)
 number of electron      27.9999915 magnetization      -0.0000000
 augmentation part       27.9999915 magnetization      -0.0000000

 Free energy of the ion-electron system (eV)
  ---------------------------------------------------
  alpha Z        PSCENC =       131.13230232
  Ewald energy   TEWEN  =     -2699.00129049
  -Hartree energ DENC   =     -1509.05935128
  -exchange      EXHF   =         0.00000000
  -V(xc)+E(xc)   XCENC  =       145.87355606
  PAW double counting   =      4746.36796906    -5623.20081930
  entropy T*S    EENTRO =        -0.00006359
  eigenvalues    EBANDS =      -385.66981575
  atomic energy  EATOM  =      5192.46507749
  ---------------------------------------------------
  free energy    TOTEN  =        -1.09419150 eV

  energy without entropy =       -1.09412790  energy(sigma->0) =       -1.09415970


--------------------------------------------------------------------------------------------------------




--------------------------------------- Iteration      1(   8)  ---------------------------------------


    TRIAL :  cpu time    0.3232: real time    0.3266
    CORREC:  cpu time    0.0012: real time    0.0012
    --------------------------------------------
      LOOP:  cpu time    0.3247: real time    0.3281

 eigenvalue-minimisations  :     0
 total energy-change (2. order) :-0.1579096E+01  (-0.8659936E+00)
 number of electron      27.9999915 magnetization      -0.0000000
 augmentation part       27.9999915 magnetization      -0.0000000

 Free energy of the ion-electron system (eV)
  ---------------------------------------------------
  alpha Z        PSCENC =       131.13230232
  Ewald energy   TEWEN  =     -2699.00129049
  -Hartree energ DENC   =     -1509.05935128
  -exchange      EXHF   =         0.00000000
  -V(xc)+E(xc)   XCENC  =       145.87355606
  PAW double counting   =      4746.36796906    -5623.20081930
  entropy T*S    EENTRO =        -0.00000008
  eigenvalues    EBANDS =      -387.25066737
  atomic energy  EATOM  =      5192.46507749
  ---------------------------------------------------
  free energy    TOTEN  =        -2.67328709 eV

  energy without entropy =       -2.67328701  energy(sigma->0) =       -2.67328705


--------------------------------------------------------------------------------------------------------




--------------------------------------- Iteration      1(   9)  ---------------------------------------


    TRIAL :  cpu time    0.3219: real time    0.3256
    CORREC:  cpu time    0.0009: real time    0.0009
    --------------------------------------------
      LOOP:  cpu time    0.3232: real time    0.3268

 eigenvalue-minimisations  :     0
 total energy-change (2. order) :-0.7376392E+00  (-0.3961699E+00)
 number of electron      27.9999915 magnetization      -0.0000000
 augmentation part       27.9999915 magnetization      -0.0000000

 Free energy of the ion-electron system (eV)
  ---------------------------------------------------
  alpha Z        PSCENC =       131.13230232
  Ewald energy   TEWEN  =     -2699.00129049
  -Hartree energ DENC   =     -1509.05935128
  -exchange      EXHF   =         0.00000000
  -V(xc)+E(xc)   XCENC  =       145.87355606
  PAW double counting   =      4746.36796906    -5623.20081930
  entropy T*S    EENTRO =        -0.00000000
  eigenvalues    EBANDS =      -387.98837008
  atomic energy  EATOM  =      5192.46507749
  ---------------------------------------------------
  free energy    TOTEN  =        -3.41092628 eV

  energy without entropy =       -3.41092628  energy(sigma->0) =       -3.41092628


--------------------------------------------------------------------------------------------------------




--------------------------------------- Iteration      1(  10)  ---------------------------------------


    TRIAL :  cpu time    0.3209: real time    0.3245
    CORREC:  cpu time    0.0007: real time    0.0008
    --------------------------------------------
      LOOP:  cpu time    0.3220: real time    0.3256

 eigenvalue-minimisations  :     0
 total energy-change (2. order) :-0.3334183E+00  (-0.1703946E+00)
 number of electron      27.9999915 magnetization      -0.0000000
 augmentation part       27.9999915 magnetization      -0.0000000

 Free energy of the ion-electron system (eV)
  ---------------------------------------------------
  alpha Z        PSCENC =       131.13230232
  Ewald energy   TEWEN  =     -2699.00129049
  -Hartree energ DENC   =     -1509.05935128
  -exchange      EXHF   =         0.00000000
  -V(xc)+E(xc)   XCENC  =       145.87355606
  PAW double counting   =      4746.36796906    -5623.20081930
  entropy T*S    EENTRO =        -0.00000000
  eigenvalues    EBANDS =      -388.32178846
  atomic energy  EATOM  =      5192.46507749
  ---------------------------------------------------
  free energy    TOTEN  =        -3.74434458 eV

  energy without entropy =       -3.74434458  energy(sigma->0) =       -3.74434458


--------------------------------------------------------------------------------------------------------




--------------------------------------- Iteration      1(  11)  ---------------------------------------


    TRIAL :  cpu time    0.3221: real time    0.3260
    CORREC:  cpu time    0.0008: real time    0.0008
    --------------------------------------------
      LOOP:  cpu time    0.3232: real time    0.3271

 eigenvalue-minimisations  :     0
 total energy-change (2. order) :-0.1402455E+00  (-0.6802124E-01)
 number of electron      27.9999915 magnetization      -0.0000000
 augmentation part       27.9999915 magnetization      -0.0000000

 Free energy of the ion-electron system (eV)
  ---------------------------------------------------
  alpha Z        PSCENC =       131.13230232
  Ewald energy   TEWEN  =     -2699.00129049
  -Hartree energ DENC   =     -1509.05935128
  -exchange      EXHF   =         0.00000000
  -V(xc)+E(xc)   XCENC  =       145.87355606
  PAW double counting   =      4746.36796906    -5623.20081930
  entropy T*S    EENTRO =        -0.00000000
  eigenvalues    EBANDS =      -388.46203395
  atomic energy  EATOM  =      5192.46507749
  ---------------------------------------------------
  free energy    TOTEN  =        -3.88459007 eV

  energy without entropy =       -3.88459007  energy(sigma->0) =       -3.88459007


--------------------------------------------------------------------------------------------------------




--------------------------------------- Iteration      1(  12)  ---------------------------------------


    TRIAL :  cpu time    0.3200: real time    0.3235
    CORREC:  cpu time    0.0008: real time    0.0008
    --------------------------------------------
      LOOP:  cpu time    0.3211: real time    0.3246

 eigenvalue-minimisations  :     0
 total energy-change (2. order) :-0.5468598E-01  (-0.2507313E-01)
 number of electron      27.9999915 magnetization      -0.0000000
 augmentation part       27.9999915 magnetization      -0.0000000

 Free energy of the ion-electron system (eV)
  ---------------------------------------------------
  alpha Z        PSCENC =       131.13230232
  Ewald energy   TEWEN  =     -2699.00129049
  -Hartree energ DENC   =     -1509.05935128
  -exchange      EXHF   =         0.00000000
  -V(xc)+E(xc)   XCENC  =       145.87355606
  PAW double counting   =      4746.36796906    -5623.20081930
  entropy T*S    EENTRO =        -0.00000000
  eigenvalues    EBANDS =      -388.51671993
  atomic energy  EATOM  =      5192.46507749
  ---------------------------------------------------
  free energy    TOTEN  =        -3.93927606 eV

  energy without entropy =       -3.93927606  energy(sigma->0) =       -3.93927606


--------------------------------------------------------------------------------------------------------




--------------------------------------- Iteration      1(  13)  ---------------------------------------


    TRIAL :  cpu time    0.3233: real time    0.3267
    CORREC:  cpu time    0.0009: real time    0.0009
    --------------------------------------------
      LOOP:  cpu time    0.3245: real time    0.3279

 eigenvalue-minimisations  :     0
 total energy-change (2. order) :-0.1972965E-01  (-0.8566969E-02)
 number of electron      27.9999915 magnetization      -0.0000000
 augmentation part       27.9999915 magnetization      -0.0000000

 Free energy of the ion-electron system (eV)
  ---------------------------------------------------
  alpha Z        PSCENC =       131.13230232
  Ewald energy   TEWEN  =     -2699.00129049
  -Hartree energ DENC   =     -1509.05935128
  -exchange      EXHF   =         0.00000000
  -V(xc)+E(xc)   XCENC  =       145.87355606
  PAW double counting   =      4746.36796906    -5623.20081930
  entropy T*S    EENTRO =        -0.00000000
  eigenvalues    EBANDS =      -388.53644959
  atomic energy  EATOM  =      5192.46507749
  ---------------------------------------------------
  free energy    TOTEN  =        -3.95900571 eV

  energy without entropy =       -3.95900571  energy(sigma->0) =       -3.95900571


--------------------------------------------------------------------------------------------------------




--------------------------------------- Iteration      1(  14)  ---------------------------------------


    TRIAL :  cpu time    0.3243: real time    0.3280
    CORREC:  cpu time    0.0009: real time    0.0009
    --------------------------------------------
      LOOP:  cpu time    0.3255: real time    0.3292

 eigenvalue-minimisations  :     0
 total energy-change (2. order) :-0.6626050E-02  (-0.2740211E-02)
 number of electron      27.9999915 magnetization      -0.0000000
 augmentation part       27.9999915 magnetization      -0.0000000

 Free energy of the ion-electron system (eV)
  ---------------------------------------------------
  alpha Z        PSCENC =       131.13230232
  Ewald energy   TEWEN  =     -2699.00129049
  -Hartree energ DENC   =     -1509.05935128
  -exchange      EXHF   =         0.00000000
  -V(xc)+E(xc)   XCENC  =       145.87355606
  PAW double counting   =      4746.36796906    -5623.20081930
  entropy T*S    EENTRO =        -0.00000000
  eigenvalues    EBANDS =      -388.54307564
  atomic energy  EATOM  =      5192.46507749
  ---------------------------------------------------
  free energy    TOTEN  =        -3.96563176 eV

  energy without entropy =       -3.96563176  energy(sigma->0) =       -3.96563176


--------------------------------------------------------------------------------------------------------




--------------------------------------- Iteration      1(  15)  ---------------------------------------


    TRIAL :  cpu time    0.3214: real time    0.3253
    CORREC:  cpu time    0.0007: real time    0.0007
    --------------------------------------------
      LOOP:  cpu time    0.3224: real time    0.3263

 eigenvalue-minimisations  :     0
 total energy-change (2. order) :-0.2085203E-02  (-0.8175153E-03)
 number of electron      27.9999915 magnetization      -0.0000000
 augmentation part       27.9999915 magnetization      -0.0000000

 Free energy of the ion-electron system (eV)
  ---------------------------------------------------
  alpha Z        PSCENC =       131.13230232
  Ewald energy   TEWEN  =     -2699.00129049
  -Hartree energ DENC   =     -1509.05935128
  -exchange      EXHF   =         0.00000000
  -V(xc)+E(xc)   XCENC  =       145.87355606
  PAW double counting   =      4746.36796906    -5623.20081930
  entropy T*S    EENTRO =        -0.00000000
  eigenvalues    EBANDS =      -388.54516084
  atomic energy  EATOM  =      5192.46507749
  ---------------------------------------------------
  free energy    TOTEN  =        -3.96771696 eV

  energy without entropy =       -3.96771696  energy(sigma->0) =       -3.96771696


--------------------------------------------------------------------------------------------------------




--------------------------------------- Iteration      1(  16)  ---------------------------------------


    TRIAL :  cpu time    0.3206: real time    0.3242
    CORREC:  cpu time    0.0008: real time    0.0008
    --------------------------------------------
      LOOP:  cpu time    0.3217: real time    0.3253

 eigenvalue-minimisations  :     0
 total energy-change (2. order) :-0.6092644E-03  (-0.2229263E-03)
 number of electron      27.9999915 magnetization      -0.0000000
 augmentation part       27.9999915 magnetization      -0.0000000

 Free energy of the ion-electron system (eV)
  ---------------------------------------------------
  alpha Z        PSCENC =       131.13230232
  Ewald energy   TEWEN  =     -2699.00129049
  -Hartree energ DENC   =     -1509.05935128
  -exchange      EXHF   =         0.00000000
  -V(xc)+E(xc)   XCENC  =       145.87355606
  PAW double counting   =      4746.36796906    -5623.20081930
  entropy T*S    EENTRO =        -0.00000000
  eigenvalues    EBANDS =      -388.54577010
  atomic energy  EATOM  =      5192.46507749
  ---------------------------------------------------
  free energy    TOTEN  =        -3.96832623 eV

  energy without entropy =       -3.96832623  energy(sigma->0) =       -3.96832623


--------------------------------------------------------------------------------------------------------




--------------------------------------- Iteration      1(  17)  ---------------------------------------


    TRIAL :  cpu time    0.3208: real time    0.3243
    CORREC:  cpu time    0.0007: real time    0.0007
    --------------------------------------------
      LOOP:  cpu time    0.3218: real time    0.3253

 eigenvalue-minimisations  :     0
 total energy-change (2. order) :-0.1612609E-03  (-0.5404179E-04)
 number of electron      27.9999915 magnetization      -0.0000000
 augmentation part       27.9999915 magnetization      -0.0000000

 Free energy of the ion-electron system (eV)
  ---------------------------------------------------
  alpha Z        PSCENC =       131.13230232
  Ewald energy   TEWEN  =     -2699.00129049
  -Hartree energ DENC   =     -1509.05935128
  -exchange      EXHF   =         0.00000000
  -V(xc)+E(xc)   XCENC  =       145.87355606
  PAW double counting   =      4746.36796906    -5623.20081930
  entropy T*S    EENTRO =        -0.00000000
  eigenvalues    EBANDS =      -388.54593136
  atomic energy  EATOM  =      5192.46507749
  ---------------------------------------------------
  free energy    TOTEN  =        -3.96848749 eV

  energy without entropy =       -3.96848749  energy(sigma->0) =       -3.96848749


--------------------------------------------------------------------------------------------------------




--------------------------------------- Iteration      1(  18)  ---------------------------------------


    TRIAL :  cpu time    0.3204: real time    0.3251
    CORREC:  cpu time    0.0008: real time    0.0008
    EDDIAG:  cpu time    0.1682: real time    0.1708
    --------------------------------------------
      LOOP:  cpu time    0.4897: real time    0.4970

 eigenvalue-minimisations  :     0
 total energy-change (2. order) :-0.3728250E-04  (-0.1111770E-04)
 number of electron      27.9999915 magnetization      -0.0000000
 augmentation part       27.9999915 magnetization      -0.0000000

 Free energy of the ion-electron system (eV)
  ---------------------------------------------------
  alpha Z        PSCENC =       131.13230232
  Ewald energy   TEWEN  =     -2699.00129049
  -Hartree energ DENC   =     -1509.05935128
  -exchange      EXHF   =         0.00000000
  -V(xc)+E(xc)   XCENC  =       145.87355606
  PAW double counting   =      4746.36796906    -5623.20081930
  entropy T*S    EENTRO =        -0.00000000
  eigenvalues    EBANDS =      -388.54596865
  atomic energy  EATOM  =      5192.46507749
  ---------------------------------------------------
  free energy    TOTEN  =        -3.96852477 eV

  energy without entropy =       -3.96852477  energy(sigma->0) =       -3.96852477


--------------------------------------------------------------------------------------------------------


  average scaling for gradient   0.6486


 average (electrostatic) potential at core
  the test charge radii are     0.9911
  (the norm of the test charge is              1.0000)
       1 -74.1577       2 -74.1577
 
 
 
 E-fermi :   4.9983     XC(G=0):  -9.9494     alpha+bet :-10.5537


 spin component 1

 k-point     1 :       0.5000    0.5000    0.5000
  band No.  band energies     occupation 
      1     -19.6736      1.00000
      2     -19.6736      1.00000
      3     -19.6298      1.00000
      4     -19.5682      1.00000
      5     -19.5682      1.00000
      6     -19.4285      1.00000
      7     -19.4285      1.00000
      8     -19.4147      1.00000
      9     -19.3517      1.00000
     10     -19.3517      1.00000
     11      -5.6001      1.00000
     12      -2.6450      1.00000
     13       3.3550      1.00000
     14       3.3550      1.00000
     15       5.3228      0.00000
     16       8.7164      0.00000
     17       8.7164      0.00000
     18      12.2197      0.00000
     19      15.6120      0.00000
     20      16.1107      0.00000
     21      16.3043      0.00000
     22      16.3043      0.00000
     23      17.6978      0.00000
     24      17.6978      0.00000
     25      23.9620      0.00000
     26      26.2852      0.00000
     27      26.8448      0.00000
     28      26.8449      0.00000
     29      27.6389      0.00000
     30      27.6390      0.00000
     31      30.7278      0.00000
     32      31.2686      0.00000
     33      32.6073      0.00000
     34      32.6084      0.00000
     35      32.7797      0.00000
     36      34.0483      0.00000
     37      34.0486      0.00000
     38      37.6640      0.00000
     39      37.7289      0.00000
     40      37.8055      0.00000
     41      37.8274      0.00000
     42      38.4900      0.00000
     43      38.5902      0.00000
     44      40.0695      0.00000
     45      43.9859      0.00000
     46      46.2654      0.00000
     47      46.5395      0.00000
     48      49.0152      0.00000
     49      51.1184      0.00000
     50      52.4050      0.00000
     51      52.5034      0.00000
     52      52.7569      0.00000
     53      56.7378      0.00000
     54      60.6719      0.00000

 k-point     2 :       0.4898    0.4898    0.4898
  band No.  band energies     occupation 
      1     -19.6735      1.00000
      2     -19.6735      1.00000
      3     -19.6298      1.00000
      4     -19.5681      1.00000
      5     -19.5681      1.00000
      6     -19.4285      1.00000
      7     -19.4285      1.00000
      8     -19.4147      1.00000
      9     -19.3516      1.00000
     10     -19.3516      1.00000
     11      -5.6050      1.00000
     12      -2.6375      1.00000
     13       3.3560      1.00000
     14       3.3560      1.00000
     15       5.3236      0.00000
     16       8.7167      0.00000
     17       8.7167      0.00000
     18      12.2208      0.00000
     19      15.5366      0.00000
     20      16.1842      0.00000
     21      16.2737      0.00000
     22      16.2737      0.00000
     23      17.7326      0.00000
     24      17.7326      0.00000
     25      23.9204      0.00000
     26      26.3316      0.00000
     27      26.7335      0.00000
     28      26.7336      0.00000
     29      27.7530      0.00000
     30      27.7533      0.00000
     31      30.5448      0.00000
     32      31.4462      0.00000
     33      32.6076      0.00000
     34      32.6118      0.00000
     35      32.7798      0.00000
     36      34.0472      0.00000
     37      34.0537      0.00000
     38      37.7306      0.00000
     39      37.7403      0.00000
     40      37.9335      0.00000
     41      38.1108      0.00000
     42      38.6188      0.00000
     43      38.6432      0.00000
     44      40.2635      0.00000
     45      44.3226      0.00000
     46      45.9719      0.00000
     47      46.4555      0.00000
     48      49.4888      0.00000
     49      52.2628      0.00000
     50      52.2689      0.00000
     51      54.3371      0.00000
     52      57.6807      0.00000
     53      59.3666      0.00000
     54      61.0344      0.00000

 k-point     3 :       0.4796    0.4796    0.4796
  band No.  band energies     occupation 
      1     -19.6735      1.00000
      2     -19.6735      1.00000
      3     -19.6299      1.00000
      4     -19.5682      1.00000
      5     -19.5682      1.00000
      6     -19.4285      1.00000
      7     -19.4285      1.00000
      8     -19.4146      1.00000
      9     -19.3516      1.00000
     10     -19.3516      1.00000
     11      -5.6196      1.00000
     12      -2.6150      1.00000
     13       3.3587      1.00000
     14       3.3587      1.00000
     15       5.3260      0.00000
     16       8.7175      0.00000
     17       8.7175      0.00000
     18      12.2240      0.00000
     19      15.3757      0.00000
     20      16.1898      0.00000
     21      16.1898      0.00000
     22      16.3391      0.00000
     23      17.8292      0.00000
     24      17.8292      0.00000
     25      23.8056      0.00000
     26      26.4625      0.00000
     27      26.4951      0.00000
     28      26.4951      0.00000
     29      28.0003      0.00000
     30      28.0009      0.00000
     31      30.2557      0.00000
     32      31.7446      0.00000
     33      32.6098      0.00000
     34      32.6349      0.00000
     35      32.8002      0.00000
     36      34.0558      0.00000
     37      34.1817      0.00000
     38      37.7355      0.00000
     39      37.7638      0.00000
     40      38.1449      0.00000
     41      38.2009      0.00000
     42      38.9073      0.00000
     43      40.8770      0.00000
     44      44.3675      0.00000
     45      44.5280      0.00000
     46      45.4678      0.00000
     47      47.3108      0.00000
     48      51.6733      0.00000
     49      51.8188      0.00000
     50      52.0967      0.00000
     51      54.4890      0.00000
     52      58.8057      0.00000
     53      61.7959      0.00000
     54      63.0086      0.00000

 k-point     4 :       0.4694    0.4694    0.4694
  band No.  band energies     occupation 
      1     -19.6735      1.00000
      2     -19.6735      1.00000
      3     -19.6300      1.00000
      4     -19.5683      1.00000
      5     -19.5683      1.00000
      6     -19.4285      1.00000
      7     -19.4285      1.00000
      8     -19.4145      1.00000
      9     -19.3517      1.00000
     10     -19.3517      1.00000
     11      -5.6435      1.00000
     12      -2.5781      1.00000
     13       3.3634      1.00000
     14       3.3634      1.00000
     15       5.3301      0.00000
     16       8.7188      0.00000
     17       8.7188      0.00000
     18      12.2293      0.00000
     19      15.1878      0.00000
     20      16.0690      0.00000
     21      16.0690      0.00000
     22      16.5166      0.00000
     23      17.9712      0.00000
     24      17.9712      0.00000
     25      23.6386      0.00000
     26      26.2173      0.00000
     27      26.2174      0.00000
     28      26.6562      0.00000
     29      28.2931      0.00000
     30      28.3038      0.00000
     31      29.9472      0.00000
     32      32.1028      0.00000
     33      32.5850      0.00000
     34      32.6343      0.00000
     35      32.7993      0.00000
     36      34.0377      0.00000
     37      34.1744      0.00000
     38      37.7796      0.00000
     39      37.7927      0.00000
     40      38.2286      0.00000
     41      38.2443      0.00000
     42      39.1899      0.00000
     43      41.8603      0.00000
     44      44.6805      0.00000
     45      45.2414      0.00000
     46      45.6877      0.00000
     47      47.3145      0.00000
     48      51.3731      0.00000
     49      52.4550      0.00000
     50      53.4494      0.00000
     51      54.6888      0.00000
     52      59.3487      0.00000
     53      62.1850      0.00000
     54      65.4653      0.00000

 k-point     5 :       0.4592    0.4592    0.4592
  band No.  band energies     occupation 
      1     -19.6734      1.00000
      2     -19.6734      1.00000
      3     -19.6301      1.00000
      4     -19.5684      1.00000
      5     -19.5684      1.00000
      6     -19.4284      1.00000
      7     -19.4284      1.00000
      8     -19.4143      1.00000
      9     -19.3518      1.00000
     10     -19.3518      1.00000
     11      -5.6759      1.00000
     12      -2.5274      1.00000
     13       3.3699      1.00000
     14       3.3699      1.00000
     15       5.3358      0.00000
     16       8.7205      0.00000
     17       8.7205      0.00000
     18      12.2364      0.00000
     19      14.9906      0.00000
     20      15.9263      0.00000
     21      15.9263      0.00000
     22      16.6980      0.00000
     23      18.1437      0.00000
     24      18.1437      0.00000
     25      23.4407      0.00000
     26      25.9269      0.00000
     27      25.9269      0.00000
     28      26.8882      0.00000
     29      28.6043      0.00000
     30      28.6043      0.00000
     31      29.6398      0.00000
     32      32.4253      0.00000
     33      32.5535      0.00000
     34      32.5535      0.00000
     35      32.7438      0.00000
     36      34.0004      0.00000
     37      34.0035      0.00000
     38      37.7465      0.00000
     39      37.8586      0.00000
     40      37.9208      0.00000
     41      38.1177      0.00000
     42      38.4661      0.00000
     43      38.9436      0.00000
     44      40.2424      0.00000
     45      44.1939      0.00000
     46      45.8845      0.00000
     47      46.6647      0.00000
     48      47.6436      0.00000
     49      50.5450      0.00000
     50      50.8931      0.00000
     51      51.3323      0.00000
     52      53.0617      0.00000
     53      56.3876      0.00000
     54      60.4080      0.00000

 k-point     6 :       0.4490    0.4490    0.4490
  band No.  band energies     occupation 
      1     -19.6734      1.00000
      2     -19.6734      1.00000
      3     -19.6303      1.00000
      4     -19.5685      1.00000
      5     -19.5685      1.00000
      6     -19.4283      1.00000
      7     -19.4283      1.00000
      8     -19.4141      1.00000
      9     -19.3518      1.00000
     10     -19.3518      1.00000
     11      -5.7160      1.00000
     12      -2.4638      1.00000
     13       3.3782      1.00000
     14       3.3782      1.00000
     15       5.3431      0.00000
     16       8.7227      0.00000
     17       8.7227      0.00000
     18      12.2451      0.00000
     19      14.7901      0.00000
     20      15.7715      0.00000
     21      15.7715      0.00000
     22      16.8762      0.00000
     23      18.3369      0.00000
     24      18.3369      0.00000
     25      23.2280      0.00000
     26      25.6325      0.00000
     27      25.6325      0.00000
     28      27.1387      0.00000
     29      28.9254      0.00000
     30      28.9255      0.00000
     31      29.3466      0.00000
     32      32.5241      0.00000
     33      32.5308      0.00000
     34      32.7270      0.00000
     35      32.7728      0.00000
     36      33.9735      0.00000
     37      33.9870      0.00000
     38      37.7995      0.00000
     39      37.8855      0.00000
     40      37.9615      0.00000
     41      38.2789      0.00000
     42      38.3972      0.00000
     43      39.2355      0.00000
     44      40.8871      0.00000
     45      44.2145      0.00000
     46      45.7918      0.00000
     47      46.3035      0.00000
     48      48.0597      0.00000
     49      50.4336      0.00000
     50      50.5802      0.00000
     51      52.7616      0.00000
     52      54.8509      0.00000
     53      58.8820      0.00000
     54      60.6696      0.00000

 k-point     7 :       0.4388    0.4388    0.4388
  band No.  band energies     occupation 
      1     -19.6733      1.00000
      2     -19.6733      1.00000
      3     -19.6305      1.00000
      4     -19.5687      1.00000
      5     -19.5687      1.00000
      6     -19.4282      1.00000
[...]
     54      61.4661      0.00000

 k-point    98 :       0.4796    0.0000    0.4796
  band No.  band energies     occupation 
      1     -19.6829      1.00000
      2     -19.6829      1.00000
      3     -19.6029      1.00000
      4     -19.5875      1.00000
      5     -19.4998      1.00000
      6     -19.4849      1.00000
      7     -19.4410      1.00000
      8     -19.4251      1.00000
      9     -19.3374      1.00000
     10     -19.3374      1.00000
     11      -4.1261      1.00000
     12      -3.5306      1.00000
     13       1.6973      1.00000
     14       1.6973      1.00000
     15       5.7299      0.00000
     16       5.8965      0.00000
     17      14.3435      0.00000
     18      14.3436      0.00000
     19      16.2996      0.00000
     20      16.9414      0.00000
     21      18.1004      0.00000
     22      18.1004      0.00000
     23      18.6353      0.00000
     24      19.3427      0.00000
     25      23.7847      0.00000
     26      23.7852      0.00000
     27      23.8695      0.00000
     28      24.3280      0.00000
     29      25.1772      0.00000
     30      25.2570      0.00000
     31      25.4580      0.00000
     32      25.8877      0.00000
     33      34.2188      0.00000
     34      34.3436      0.00000
     35      35.0781      0.00000
     36      35.9023      0.00000
     37      37.7631      0.00000
     38      38.3386      0.00000
     39      38.8487      0.00000
     40      40.9686      0.00000
     41      42.0270      0.00000
     42      42.3211      0.00000
     43      44.4337      0.00000
     44      44.8797      0.00000
     45      47.6771      0.00000
     46      51.5828      0.00000
     47      52.0823      0.00000
     48      52.3375      0.00000
     49      52.3917      0.00000
     50      56.9682      0.00000
     51      57.3714      0.00000
     52      59.2875      0.00000
     53      59.7332      0.00000
     54      61.6111      0.00000

 k-point    99 :       0.4898    0.0000    0.4898
  band No.  band energies     occupation 
      1     -19.6830      1.00000
      2     -19.6830      1.00000
      3     -19.5992      1.00000
      4     -19.5915      1.00000
      5     -19.4961      1.00000
      6     -19.4886      1.00000
      7     -19.4369      1.00000
      8     -19.4290      1.00000
      9     -19.3372      1.00000
     10     -19.3372      1.00000
     11      -3.9806      1.00000
     12      -3.6828      1.00000
     13       1.6919      1.00000
     14       1.6919      1.00000
     15       5.7651      0.00000
     16       5.8484      0.00000
     17      14.3848      0.00000
     18      14.3848      0.00000
     19      16.4714      0.00000
     20      16.7938      0.00000
     21      18.0522      0.00000
     22      18.0523      0.00000
     23      18.8066      0.00000
     24      19.1603      0.00000
     25      24.0901      0.00000
     26      24.0919      0.00000
     27      24.1238      0.00000
     28      24.4177      0.00000
     29      24.8516      0.00000
     30      24.9019      0.00000
     31      25.3408      0.00000
     32      25.6205      0.00000
     33      34.2548      0.00000
     34      34.3936      0.00000
     35      35.2334      0.00000
     36      35.7612      0.00000
     37      38.0942      0.00000
     38      38.4186      0.00000
     39      38.8013      0.00000
     40      40.9600      0.00000
     41      41.9055      0.00000
     42      42.2910      0.00000
     43      44.2277      0.00000
     44      44.7022      0.00000
     45      47.4026      0.00000
     46      51.6031      0.00000
     47      52.3527      0.00000
     48      52.6501      0.00000
     49      52.9620      0.00000
     50      56.6900      0.00000
     51      57.6334      0.00000
     52      59.4632      0.00000
     53      60.2175      0.00000
     54      61.7818      0.00000

 k-point   100 :       0.5000    0.0000    0.5000
  band No.  band energies     occupation 
      1     -19.6831      1.00000
      2     -19.6831      1.00000
      3     -19.5954      1.00000
      4     -19.5954      1.00000
      5     -19.4923      1.00000
      6     -19.4923      1.00000
      7     -19.4329      1.00000
      8     -19.4329      1.00000
      9     -19.3372      1.00000
     10     -19.3372      1.00000
     11      -3.8328      1.00000
     12      -3.8328      1.00000
     13       1.6901      1.00000
     14       1.6901      1.00000
     15       5.8046      0.00000
     16       5.8046      0.00000
     17      14.3988      0.00000
     18      14.3988      0.00000
     19      16.6365      0.00000
     20      16.6366      0.00000
     21      18.0359      0.00000
     22      18.0360      0.00000
     23      18.9816      0.00000
     24      18.9817      0.00000
     25      24.3087      0.00000
     26      24.3120      0.00000
     27      24.3180      0.00000
     28      24.3539      0.00000
     29      24.6297      0.00000
     30      24.6334      0.00000
     31      25.4134      0.00000
     32      25.4195      0.00000
     33      34.2788      0.00000
     34      34.4186      0.00000
     35      35.3796      0.00000
     36      35.7185      0.00000
     37      38.1315      0.00000
     38      38.7061      0.00000
     39      38.8115      0.00000
     40      40.9668      0.00000
     41      41.8630      0.00000
     42      42.2042      0.00000
     43      43.9956      0.00000
     44      44.6161      0.00000
     45      47.1935      0.00000
     46      51.1743      0.00000
     47      52.7572      0.00000
     48      53.2367      0.00000
     49      53.4737      0.00000
     50      56.4693      0.00000
     51      57.9093      0.00000
     52      59.5750      0.00000
     53      60.6640      0.00000
     54      61.9518      0.00000


--------------------------------------------------------------------------------------------------------


 soft charge-density along one line, spin component           1
         0         1         2         3         4         5         6         7         8         9
 total charge-density along one line
 
 soft charge-density along one line, spin component           2
         0         1         2         3         4         5         6         7         8         9
 total charge-density along one line
 
 pseudopotential strength for first ion, spin component:           1
-22.092  -0.000  -0.000  -0.000  -0.000   4.299   0.000   0.000
 -0.000 -22.092   0.000  -0.000  -0.000   0.000   4.299  -0.000
 -0.000   0.000 -22.091   0.000  -0.000   0.000  -0.000   4.298
 -0.000  -0.000   0.000 -22.092   0.000   0.000   0.000  -0.000
 -0.000  -0.000  -0.000   0.000 -22.091   0.000   0.000   0.000
  4.299   0.000   0.000   0.000   0.000   1.978   0.000   0.000
  0.000   4.299  -0.000   0.000   0.000   0.000   1.978  -0.000
  0.000  -0.000   4.298  -0.000   0.000   0.000  -0.000   1.978
  0.000   0.000  -0.000   4.299  -0.000   0.000   0.000  -0.000
  0.000   0.000   0.000  -0.000   4.298   0.000   0.000  -0.000
  0.000   0.000   0.000   0.000   0.000  -0.000  -0.000  -0.000
  0.000   0.000   0.000   0.000   0.000  -0.000  -0.000  -0.000
  0.000   0.000   0.000   0.001   0.000  -0.000  -0.000  -0.000
  0.001   0.000  -0.000   0.000  -0.000  -0.002  -0.000   0.000
  0.000   0.001   0.000   0.000  -0.000  -0.000  -0.002  -0.000
  0.000   0.000   0.000   0.002   0.000  -0.000  -0.000  -0.000
  0.002   0.000  -0.000   0.000  -0.000  -0.003  -0.000   0.000
  0.000   0.002   0.000   0.000  -0.000  -0.000  -0.003  -0.000
 pseudopotential strength for first ion, spin component:           2
-22.092  -0.000  -0.000  -0.000  -0.000   4.299   0.000   0.000
 -0.000 -22.092   0.000  -0.000  -0.000   0.000   4.299  -0.000
 -0.000   0.000 -22.091   0.000  -0.000   0.000  -0.000   4.298
 -0.000  -0.000   0.000 -22.092   0.000   0.000   0.000  -0.000
 -0.000  -0.000  -0.000   0.000 -22.091   0.000   0.000   0.000
  4.299   0.000   0.000   0.000   0.000   1.978   0.000   0.000
  0.000   4.299  -0.000   0.000   0.000   0.000   1.978  -0.000
  0.000  -0.000   4.298  -0.000   0.000   0.000  -0.000   1.978
  0.000   0.000  -0.000   4.299  -0.000   0.000   0.000  -0.000
  0.000   0.000   0.000  -0.000   4.298   0.000   0.000  -0.000
  0.000   0.000   0.000   0.000   0.000  -0.000  -0.000  -0.000
  0.000   0.000   0.000   0.000   0.000  -0.000  -0.000  -0.000
  0.000   0.000   0.000   0.001   0.000  -0.000  -0.000  -0.000
  0.001   0.000  -0.000   0.000  -0.000  -0.002  -0.000   0.000
  0.000   0.001   0.000   0.000  -0.000  -0.000  -0.002  -0.000
  0.000   0.000   0.000   0.002   0.000  -0.000  -0.000  -0.000
  0.002   0.000  -0.000   0.000  -0.000  -0.003  -0.000   0.000
  0.000   0.002   0.000   0.000  -0.000  -0.000  -0.003  -0.000
 total augmentation occupancy for first ion, spin component:           1
  2.000   0.000   0.000   0.000   0.000   0.000   0.000   0.000   0.000   0.000   0.000   0.000   0.000   0.000   0.000   0.000
  0.000   2.000   0.000   0.000   0.000   0.000   0.000   0.000   0.000   0.000   0.000   0.000   0.000   0.000   0.000   0.000
  0.000   0.000   2.000   0.000   0.000   0.000   0.000   0.000   0.000   0.000   0.000   0.000   0.000   0.000   0.000   0.000
  0.000   0.000   0.000   2.000   0.000   0.000   0.000   0.000   0.000   0.000   0.000   0.000   0.000   0.000   0.000   0.000
  0.000   0.000   0.000   0.000   2.000   0.000   0.000   0.000   0.000   0.000   0.000   0.000   0.000   0.000   0.000   0.000
  0.000   0.000   0.000   0.000   0.000   0.000   0.000   0.000   0.000   0.000   0.000   0.000   0.000   0.000   0.000   0.000
  0.000   0.000   0.000   0.000   0.000   0.000   0.000   0.000   0.000   0.000   0.000   0.000   0.000   0.000   0.000   0.000
  0.000   0.000   0.000   0.000   0.000   0.000   0.000   0.000   0.000   0.000   0.000   0.000   0.000   0.000   0.000   0.000
  0.000   0.000   0.000   0.000   0.000   0.000   0.000   0.000   0.000   0.000   0.000   0.000   0.000   0.000   0.000   0.000
  0.000   0.000   0.000   0.000   0.000   0.000   0.000   0.000   0.000   0.000   0.000   0.000   0.000   0.000   0.000   0.000
  0.000   0.000   0.000   0.000   0.000   0.000   0.000   0.000   0.000   0.000   2.000   0.000   0.000   0.000   0.000   0.000
  0.000   0.000   0.000   0.000   0.000   0.000   0.000   0.000   0.000   0.000   0.000   0.000   0.000   0.000   0.000   0.000
  0.000   0.000   0.000   0.000   0.000   0.000   0.000   0.000   0.000   0.000   0.000   0.000   0.667   0.000   0.000   0.000
  0.000   0.000   0.000   0.000   0.000   0.000   0.000   0.000   0.000   0.000   0.000   0.000   0.000   0.667   0.000   0.000
  0.000   0.000   0.000   0.000   0.000   0.000   0.000   0.000   0.000   0.000   0.000   0.000   0.000   0.000   0.667   0.000
  0.000   0.000   0.000   0.000   0.000   0.000   0.000   0.000   0.000   0.000   0.000   0.000   0.000   0.000   0.000   0.000
  0.000   0.000   0.000   0.000   0.000   0.000   0.000   0.000   0.000   0.000   0.000   0.000   0.000   0.000   0.000   0.000
  0.000   0.000   0.000   0.000   0.000   0.000   0.000   0.000   0.000   0.000   0.000   0.000   0.000   0.000   0.000   0.000
 total augmentation occupancy for first ion, spin component:           2
  0.000   0.000   0.000   0.000   0.000   0.000   0.000   0.000   0.000   0.000   0.000   0.000   0.000   0.000   0.000   0.000
  0.000   0.000   0.000   0.000   0.000   0.000   0.000   0.000   0.000   0.000   0.000   0.000   0.000   0.000   0.000   0.000
  0.000   0.000   0.000   0.000   0.000   0.000   0.000   0.000   0.000   0.000   0.000   0.000   0.000   0.000   0.000   0.000
  0.000   0.000   0.000   0.000   0.000   0.000   0.000   0.000   0.000   0.000   0.000   0.000   0.000   0.000   0.000   0.000
  0.000   0.000   0.000   0.000   0.000   0.000   0.000   0.000   0.000   0.000   0.000   0.000   0.000   0.000   0.000   0.000
  0.000   0.000   0.000   0.000   0.000   0.000   0.000   0.000   0.000   0.000   0.000   0.000   0.000   0.000   0.000   0.000
  0.000   0.000   0.000   0.000   0.000   0.000   0.000   0.000   0.000   0.000   0.000   0.000   0.000   0.000   0.000   0.000
  0.000   0.000   0.000   0.000   0.000   0.000   0.000   0.000   0.000   0.000   0.000   0.000   0.000   0.000   0.000   0.000
  0.000   0.000   0.000   0.000   0.000   0.000   0.000   0.000   0.000   0.000   0.000   0.000   0.000   0.000   0.000   0.000
  0.000   0.000   0.000   0.000   0.000   0.000   0.000   0.000   0.000   0.000   0.000   0.000   0.000   0.000   0.000   0.000
  0.000   0.000   0.000   0.000   0.000   0.000   0.000   0.000   0.000   0.000   0.000   0.000   0.000   0.000   0.000   0.000
  0.000   0.000   0.000   0.000   0.000   0.000   0.000   0.000   0.000   0.000   0.000   0.000   0.000   0.000   0.000   0.000
  0.000   0.000   0.000   0.000   0.000   0.000   0.000   0.000   0.000   0.000   0.000   0.000   0.000   0.000   0.000   0.000
  0.000   0.000   0.000   0.000   0.000   0.000   0.000   0.000   0.000   0.000   0.000   0.000   0.000   0.000   0.000   0.000
  0.000   0.000   0.000   0.000   0.000   0.000   0.000   0.000   0.000   0.000   0.000   0.000   0.000   0.000   0.000   0.000
  0.000   0.000   0.000   0.000   0.000   0.000   0.000   0.000   0.000   0.000   0.000   0.000   0.000   0.000   0.000   0.000
  0.000   0.000   0.000   0.000   0.000   0.000   0.000   0.000   0.000   0.000   0.000   0.000   0.000   0.000   0.000   0.000
  0.000   0.000   0.000   0.000   0.000   0.000   0.000   0.000   0.000   0.000   0.000   0.000   0.000   0.000   0.000   0.000


------------------------ aborting loop because EDIFF is reached ----------------------------------------


 


 total charge     
 
# of ion       s       p       d       tot
------------------------------------------
    1        0.996   1.541  10.064  12.602
    2        0.996   1.541  10.064  12.602
--------------------------------------------------
tot          1.993   3.082  20.129  25.204
 


 magnetization (x)
 
# of ion       s       p       d       tot
------------------------------------------
    1        0.000  -0.000   0.000   0.000
    2        0.000  -0.000   0.000  -0.000
--------------------------------------------------
tot          0.000  -0.000   0.000  -0.000
 
    CHARGE:  cpu time    0.0255: real time    0.0480
    FORLOC:  cpu time    0.0002: real time    0.0002
    FORNL :  cpu time    0.0497: real time    0.0501
    STRESS:  cpu time    0.1176: real time    0.1188
    FORCOR:  cpu time    0.0105: real time    0.0107
    FORHAR:  cpu time    0.0009: real time    0.0010
    OFIELD:  cpu time    0.0001: real time    0.0001

  FORCE on cell =-STRESS in cart. coord.  units (eV):
  Direction    XX          YY          ZZ          XY          YZ          ZX
  --------------------------------------------------------------------------------------
  Alpha Z   131.13230   131.13230   131.13230
  Ewald    -899.66750  -899.66750  -899.66750     0.00000    -0.00000     0.00000
  Hartree   509.52747   509.52747   509.52747     0.00000     0.00000     0.00000
  E(xc)    -164.88385  -164.88385  -164.88385     0.00002     0.00002     0.00002
  Local     -32.99510   -32.99510   -32.99510     0.00074     0.00074     0.00074
  n-local    73.41234    67.68086    73.41186    -2.07104    -2.07078    -2.07100
  augment   253.35184   253.35184   253.35184    -0.00060    -0.00060    -0.00060
  Kinetic   156.66938   148.95086   156.66993    -2.59495    -2.59612    -2.59550
  Fock        0.00000     0.00000     0.00000     0.00000     0.00000     0.00000
  -------------------------------------------------------------------------------------
  Total      22.06357    22.06357    22.06357     0.00000     0.00000     0.00000
  in kB     791.09236   791.09236   791.09236     0.00000     0.00000     0.00000
  external pressure =      791.09 kB  Pullay stress =        0.00 kB


 VOLUME and BASIS-vectors are now :
 -----------------------------------------------------------------------------
  energy-cutoff  :      450.00
  volume of cell :       44.68
      direct lattice vectors                 reciprocal lattice vectors
     0.000000000  2.816500000  2.816500000    -0.177525297  0.177525297  0.177525297
     2.816500000  0.000000000  2.816500000     0.177525297 -0.177525297  0.177525297
     2.816500000  2.816500000  0.000000000     0.177525297  0.177525297 -0.177525297

  length of vectors
     3.983132498  3.983132498  3.983132498     0.307482835  0.307482835  0.307482835


 FORCES acting on ions
    electron-ion (+dipol)            ewald-force                    non-local-force                 convergence-correction
 -----------------------------------------------------------------------------------------------
   0.375E-06 0.375E-06 0.136E-05   0.347E-13 0.213E-13 0.640E-13   0.971E-16 0.215E-15 0.326E-15   0.286E-07 0.286E-07 0.286E-07
   -.375E-06 -.375E-06 -.136E-05   -.341E-13 -.194E-13 -.605E-13   -.971E-16 -.208E-15 -.319E-15   -.286E-07 -.286E-07 -.286E-07
 -----------------------------------------------------------------------------------------------
   -.139E-11 0.770E-12 0.266E-11   0.562E-15 0.183E-14 0.346E-14   0.000E+00 0.694E-17 0.694E-17   -.363E-12 -.595E-12 -.197E-12
 
 
 POSITION                                       TOTAL-FORCE (eV/Angst)
 -----------------------------------------------------------------------------------
      0.00000      0.00000      0.00000         0.000000      0.000000      0.000000
      1.40825      1.40825      1.40825        -0.000000     -0.000000     -0.000000
 -----------------------------------------------------------------------------------
    total drift:                               -0.000000      0.000000      0.000000


--------------------------------------------------------------------------------------------------------



  FREE ENERGIE OF THE ION-ELECTRON SYSTEM (eV)
  ---------------------------------------------------
  free  energy   TOTEN  =        -3.96852477 eV

  energy  without entropy=       -3.96852477  energy(sigma->0) =       -3.96852477
 


--------------------------------------------------------------------------------------------------------


    POTLOK:  cpu time    0.0163: real time    0.0164


--------------------------------------------------------------------------------------------------------


     LOOP+:  cpu time    6.4551: real time    6.6517
    4ORBIT:  cpu time    0.0000: real time    0.0000
 


 total charge     
 
# of ion       s       p       d       tot
------------------------------------------
    1        0.996   1.541  10.064  12.602
    2        0.996   1.541  10.064  12.602
--------------------------------------------------
tot          1.993   3.082  20.129  25.204
 


 magnetization (x)
 
# of ion       s       p       d       tot
------------------------------------------
    1        0.000  -0.000   0.000   0.000
    2        0.000  -0.000   0.000  -0.000
--------------------------------------------------
tot          0.000  -0.000   0.000  -0.000
 

 total amount of memory used by VASP MPI-rank0    96368. kBytes
=======================================================================

   base      :      30000. kBytes
   nonl-proj :       4719. kBytes
   fftplans  :        600. kBytes
   grid      :       1402. kBytes
   one-center:         31. kBytes
   wavefun   :      59616. kBytes
 
  
  
 General timing and accounting informations for this job:
 ========================================================
  
                  Total CPU time used (sec):        9.507
                            User time (sec):        8.680
                          System time (sec):        0.827
                         Elapsed time (sec):       11.516
  
                   Maximum memory used (kb):      250196.
                   Average memory used (kb):           0.
  
                          Minor page faults:        31966
                          Major page faults:            0
                 Voluntary context switches:         3366
