PROCAR lm decomposed
# of k-points:  100         # of bands:   54         # of ions:    2

 k-point     1 :    0.50000000 0.50000000 0.50000000     weight = 0.01000000

band     1 # energy  -19.67357068 # occ.  1.00000000
 
ion      s     py     pz     px    dxy    dyz    dz2    dxz  x2-y2    tot
    1  0.000  0.000  0.000  0.000  0.261  0.216  0.014  0.003  0.003  0.497
    2  0.000  0.000  0.000  0.000  0.261  0.216  0.014  0.003  0.003  0.497
tot    0.000  0.000  0.000  0.000  0.521  0.431  0.028  0.006  0.006  0.994
 
band     2 # energy  -19.67357068 # occ.  1.00000000
 
ion      s     py     pz     px    dxy    dyz    dz2    dxz  x2-y2    tot
    1  0.000  0.000  0.000  0.000  0.059  0.104  0.003  0.317  0.014  0.497
    2  0.000  0.000  0.000  0.000  0.059  0.104  0.003  0.317  0.014  0.497
tot    0.000  0.001  0.000  0.000  0.118  0.208  0.006  0.633  0.028  0.994
 
band     3 # energy  -19.62980242 # occ.  1.00000000
 
ion      s     py     pz     px    dxy    dyz    dz2    dxz  x2-y2    tot
    1  0.001  0.000  0.000  0.000  0.165  0.165  0.000  0.165  0.000  0.497
    2  0.001  0.000  0.000  0.000  0.165  0.165  0.000  0.165  0.000  0.497
tot    0.001  0.000  0.000  0.000  0.331  0.331  0.000  0.331  0.000  0.994
 
band     4 # energy  -19.56817796 # occ.  1.00000000
 
ion      s     py     pz     px    dxy    dyz    dz2    dxz  x2-y2    tot
    1  0.000  0.000  0.000  0.000  0.013  0.013  0.286  0.005  0.179  0.496
    2  0.000  0.000  0.000  0.000  0.013  0.013  0.286  0.005  0.179  0.496
tot    0.000  0.000  0.000  0.000  0.026  0.027  0.572  0.011  0.357  0.993
 
band     5 # energy  -19.56817796 # occ.  1.00000000
 
ion      s     py     pz     px    dxy    dyz    dz2    dxz  x2-y2    tot
    1  0.000  0.000  0.000  0.000  0.008  0.008  0.179  0.016  0.286  0.496
    2  0.000  0.000  0.000  0.000  0.008  0.008  0.179  0.016  0.286  0.496
tot    0.000  0.000  0.000  0.000  0.016  0.016  0.357  0.032  0.572  0.993
 
band     6 # energy  -19.42854180 # occ.  1.00000000
 
ion      s     py     pz     px    dxy    dyz    dz2    dxz  x2-y2    tot
    1  0.000  0.000  0.000  0.000  0.006  0.006  0.233  0.005  0.248  0.498
    2  0.000  0.000  0.000  0.000  0.006  0.006  0.233  0.005  0.248  0.498
tot    0.000  0.000  0.000  0.000  0.011  0.013  0.466  0.010  0.496  0.997
 
band     7 # energy  -19.42854179 # occ.  1.00000000
 
ion      s     py     pz     px    dxy    dyz    dz2    dxz  x2-y2    tot
    1  0.000  0.000  0.000  0.000  0.006  0.005  0.248  0.006  0.233  0.498
    2  0.000  0.000  0.000  0.000  0.006  0.005  0.248  0.006  0.233  0.498
tot    0.000  0.000  0.000  0.000  0.012  0.010  0.496  0.013  0.466  0.997
 
band     8 # energy  -19.41468789 # occ.  1.00000000
 
ion      s     py     pz     px    dxy    dyz    dz2    dxz  x2-y2    tot
    1  0.001  0.000  0.000  0.000  0.166  0.166  0.000  0.166  0.000  0.498
    2  0.001  0.000  0.000  0.000  0.166  0.166  0.000  0.166  0.000  0.498
tot    0.001  0.000  0.000  0.000  0.332  0.332  0.000  0.332  0.000  0.996
 
band     9 # energy  -19.35168980 # occ.  1.00000000
 
ion      s     py     pz     px    dxy    dyz    dz2    dxz  x2-y2    tot
    1  0.000  0.000  0.000  0.000  0.156  0.101  0.016  0.209  0.016  0.499
    2  0.000  0.000  0.000  0.000  0.156  0.101  0.016  0.209  0.016  0.499
tot    0.000  0.000  0.000  0.000  0.311  0.203  0.032  0.418  0.032  0.997
 
band    10 # energy  -19.35168980 # occ.  1.00000000
 
ion      s     py     pz     px    dxy    dyz    dz2    dxz  x2-y2    tot
    1  0.000  0.000  0.000  0.000  0.155  0.209  0.016  0.102  0.016  0.499
    2  0.000  0.000  0.000  0.000  0.155  0.209  0.016  0.102  0.016  0.499
tot    0.000  0.000  0.000  0.000  0.310  0.419  0.032  0.204  0.032  0.997
 
band    11 # energy   -5.60005174 # occ.  1.00000000
 
ion      s     py     pz     px    dxy    dyz    dz2    dxz  x2-y2    tot
    1  0.317  0.006  0.006  0.006  0.002  0.002  0.000  0.002  0.000  0.342
    2  0.317  0.006  0.006  0.006  0.002  0.002  0.000  0.002  0.000  0.342
tot    0.634  0.013  0.013  0.013  0.004  0.004  0.000  0.004  0.000  0.685
 
band    12 # energy   -2.64504673 # occ.  1.00000000
 
ion      s     py     pz     px    dxy    dyz    dz2    dxz  x2-y2    tot
    1  0.167  0.042  0.042  0.042  0.001  0.001  0.000  0.001  0.000  0.297
    2  0.167  0.042  0.042  0.042  0.001  0.001  0.000  0.001  0.000  0.297
tot    0.335  0.085  0.085  0.085  0.001  0.001  0.000  0.001  0.000  0.593
 
band    13 # energy    3.35503217 # occ.  1.00000000
 
ion      s     py     pz     px    dxy    dyz    dz2    dxz  x2-y2    tot
    1  0.000  0.017  0.104  0.192  0.004  0.008  0.001  0.001  0.001  0.329
    2  0.000  0.017  0.104  0.192  0.004  0.008  0.001  0.001  0.001  0.329
tot    0.000  0.035  0.208  0.383  0.009  0.016  0.003  0.001  0.003  0.657
 
band    14 # energy    3.35503217 # occ.  1.00000000
 
ion      s     py     pz     px    dxy    dyz    dz2    dxz  x2-y2    tot
    1  0.000  0.191  0.105  0.017  0.004  0.001  0.001  0.008  0.001  0.329
    2  0.000  0.191  0.105  0.017  0.004  0.001  0.001  0.008  0.001  0.329
tot    0.000  0.382  0.209  0.034  0.009  0.001  0.003  0.016  0.003  0.657
 
band    15 # energy    5.32275559 # occ.  0.00000000
 
ion      s     py     pz     px    dxy    dyz    dz2    dxz  x2-y2    tot
    1  0.220  0.019  0.019  0.019  0.010  0.010  0.000  0.010  0.000  0.306
    2  0.220  0.019  0.019  0.019  0.010  0.010  0.000  0.010  0.000  0.306
tot    0.440  0.038  0.038  0.038  0.019  0.019  0.000  0.019  0.000  0.612
 
band    16 # energy    8.71638524 # occ.  0.00000000
 
ion      s     py     pz     px    dxy    dyz    dz2    dxz  x2-y2    tot
    1  0.000  0.046  0.063  0.053  0.014  0.012  0.023  0.010  0.016  0.238
    2  0.000  0.046  0.063  0.053  0.014  0.012  0.023  0.010  0.016  0.238
tot    0.000  0.091  0.126  0.106  0.028  0.024  0.046  0.021  0.033  0.475
 
band    17 # energy    8.71638524 # occ.  0.00000000
 
ion      s     py     pz     px    dxy    dyz    dz2    dxz  x2-y2    tot
    1  0.000  0.062  0.045  0.055  0.010  0.012  0.016  0.014  0.023  0.238
    2  0.000  0.062  0.045  0.055  0.010  0.012  0.016  0.014  0.023  0.238
tot    0.000  0.124  0.089  0.110  0.020  0.025  0.033  0.028  0.046  0.475
 
band    18 # energy   12.21974625 # occ.  0.00000000
 
ion      s     py     pz     px    dxy    dyz    dz2    dxz  x2-y2    tot
    1  0.005  0.022  0.022  0.022  0.006  0.006  0.000  0.006  0.000  0.091
    2  0.005  0.022  0.022  0.022  0.006  0.006  0.000  0.006  0.000  0.091
tot    0.009  0.045  0.045  0.045  0.013  0.013  0.000  0.013  0.000  0.183
 
band    19 # energy   15.61203361 # occ.  0.00000000
 
ion      s     py     pz     px    dxy    dyz    dz2    dxz  x2-y2    tot
    1  0.016  0.058  0.058  0.058  0.013  0.013  0.000  0.013  0.000  0.230
    2  0.016  0.058  0.058  0.058  0.013  0.013  0.000  0.013  0.000  0.230
tot    0.031  0.116  0.116  0.116  0.027  0.027  0.000  0.027  0.000  0.460
 
band    20 # energy   16.11067077 # occ.  0.00000000
 
ion      s     py     pz     px    dxy    dyz    dz2    dxz  x2-y2    tot
    1  0.089  0.083  0.083  0.083  0.000  0.000  0.000  0.000  0.000  0.340
    2  0.089  0.083  0.083  0.083  0.000  0.000  0.000  0.000  0.000  0.340
tot    0.178  0.167  0.167  0.167  0.001  0.001  0.000  0.001  0.000  0.681
 
band    21 # energy   16.30426244 # occ.  0.00000000
 
ion      s     py     pz     px    dxy    dyz    dz2    dxz  x2-y2    tot
    1  0.000  0.004  0.048  0.067  0.001  0.002  0.046  0.000  0.029  0.198
    2  0.000  0.004  0.048  0.067  0.001  0.002  0.046  0.000  0.029  0.198
tot    0.000  0.008  0.097  0.134  0.003  0.004  0.092  0.000  0.059  0.395
 
band    22 # energy   16.30426245 # occ.  0.00000000
 
ion      s     py     pz     px    dxy    dyz    dz2    dxz  x2-y2    tot
    1  0.000  0.076  0.031  0.013  0.001  0.000  0.029  0.002  0.046  0.198
    2  0.000  0.076  0.031  0.013  0.001  0.000  0.029  0.002  0.046  0.198
tot    0.000  0.151  0.062  0.025  0.002  0.001  0.059  0.004  0.092  0.395
 
band    23 # energy   17.69776068 # occ.  0.00000000
 
ion      s     py     pz     px    dxy    dyz    dz2    dxz  x2-y2    tot
    1  0.000  0.000  0.002  0.002  0.098  0.090  0.048  0.003  0.014  0.256
    2  0.000  0.000  0.002  0.002  0.098  0.090  0.048  0.003  0.014  0.256
tot    0.000  0.000  0.004  0.004  0.195  0.180  0.095  0.006  0.028  0.512
 
band    24 # energy   17.69776068 # occ.  0.00000000
 
ion      s     py     pz     px    dxy    dyz    dz2    dxz  x2-y2    tot
    1  0.000  0.002  0.001  0.001  0.029  0.037  0.014  0.124  0.048  0.256
    2  0.000  0.002  0.001  0.001  0.029  0.037  0.014  0.124  0.048  0.256
tot    0.000  0.005  0.001  0.001  0.058  0.074  0.028  0.248  0.095  0.512
 
band    25 # energy   23.96195701 # occ.  0.00000000
 
ion      s     py     pz     px    dxy    dyz    dz2    dxz  x2-y2    tot
    1  0.021  0.026  0.026  0.026  0.011  0.011  0.000  0.011  0.000  0.130
    2  0.021  0.026  0.026  0.026  0.011  0.011  0.000  0.011  0.000  0.130
tot    0.041  0.051  0.051  0.051  0.022  0.022  0.000  0.022  0.000  0.260
 
band    26 # energy   26.28524496 # occ.  0.00000000
 
ion      s     py     pz     px    dxy    dyz    dz2    dxz  x2-y2    tot
    1  0.053  0.002  0.002  0.002  0.106  0.106  0.000  0.106  0.000  0.376
    2  0.053  0.002  0.002  0.002  0.106  0.106  0.000  0.106  0.000  0.376
tot    0.106  0.003  0.003  0.003  0.212  0.212  0.000  0.212  0.000  0.752
 
band    27 # energy   26.84476251 # occ.  0.00000000
 
ion      s     py     pz     px    dxy    dyz    dz2    dxz  x2-y2    tot
    1  0.000  0.018  0.016  0.003  0.005  0.001  0.027  0.006  0.014  0.089
    2  0.000  0.018  0.016  0.003  0.005  0.001  0.027  0.006  0.014  0.089
tot    0.000  0.035  0.032  0.005  0.010  0.002  0.054  0.012  0.028  0.178
 
band    28 # energy   26.84492408 # occ.  0.00000000
 
ion      s     py     pz     px    dxy    dyz    dz2    dxz  x2-y2    tot
    1  0.000  0.006  0.008  0.022  0.003  0.007  0.014  0.002  0.027  0.089
    2  0.000  0.006  0.008  0.022  0.003  0.007  0.014  0.002  0.027  0.089
tot    0.000  0.013  0.017  0.043  0.005  0.014  0.028  0.004  0.054  0.178
 
band    29 # energy   27.63888478 # occ.  0.00000000
 
ion      s     py     pz     px    dxy    dyz    dz2    dxz  x2-y2    tot
    1  0.000  0.001  0.001  0.000  0.006  0.002  0.125  0.006  0.064  0.204
    2  0.000  0.001  0.001  0.000  0.006  0.001  0.124  0.006  0.064  0.204
tot    0.000  0.002  0.002  0.000  0.012  0.003  0.249  0.012  0.128  0.408
 
band    30 # energy   27.63902876 # occ.  0.00000000
 
ion      s     py     pz     px    dxy    dyz    dz2    dxz  x2-y2    tot
    1  0.000  0.000  0.000  0.001  0.003  0.008  0.064  0.003  0.125  0.204
    2  0.000  0.000  0.000  0.001  0.003  0.008  0.064  0.003  0.124  0.203
tot    0.000  0.001  0.001  0.002  0.006  0.015  0.128  0.006  0.249  0.407
 
band    31 # energy   30.72778742 # occ.  0.00000000
 
ion      s     py     pz     px    dxy    dyz    dz2    dxz  x2-y2    tot
    1  0.000  0.003  0.003  0.003  0.032  0.032  0.000  0.032  0.000  0.105
    2  0.001  0.003  0.003  0.003  0.032  0.032  0.000  0.032  0.000  0.106
tot    0.001  0.006  0.006  0.006  0.064  0.065  0.000  0.064  0.000  0.211
 
band    32 # energy   31.26858760 # occ.  0.00000000
 
ion      s     py     pz     px    dxy    dyz    dz2    dxz  x2-y2    tot
    1  0.011  0.007  0.008  0.008  0.002  0.002  0.000  0.002  0.000  0.041
    2  0.011  0.007  0.008  0.008  0.002  0.002  0.000  0.002  0.000  0.041
tot    0.022  0.014  0.016  0.016  0.004  0.005  0.000  0.004  0.000  0.081
 
band    33 # energy   32.60727681 # occ.  0.00000000
 
ion      s     py     pz     px    dxy    dyz    dz2    dxz  x2-y2    tot
    1  0.000  0.014  0.107  0.053  0.046  0.023  0.004  0.006  0.000  0.253
    2  0.000  0.014  0.107  0.053  0.045  0.023  0.004  0.006  0.000  0.252
tot    0.000  0.028  0.213  0.106  0.091  0.045  0.008  0.012  0.001  0.505
 
band    34 # energy   32.60843165 # occ.  0.00000000
 
ion      s     py     pz     px    dxy    dyz    dz2    dxz  x2-y2    tot
    1  0.000  0.102  0.009  0.062  0.004  0.027  0.000  0.044  0.004  0.253
    2  0.000  0.103  0.009  0.063  0.004  0.026  0.000  0.044  0.004  0.254
tot    0.000  0.205  0.019  0.125  0.008  0.053  0.001  0.088  0.008  0.507
 
band    35 # energy   32.77967773 # occ.  0.00000000
 
ion      s     py     pz     px    dxy    dyz    dz2    dxz  x2-y2    tot
    1  0.000  0.000  0.000  0.000  0.000  0.000  0.000  0.000  0.000  0.000
    2  0.000  0.000  0.000  0.000  0.000  0.000  0.000  0.000  0.000  0.000
tot    0.000  0.000  0.000  0.000  0.000  0.000  0.000  0.000  0.000  0.000
 
band    36 # energy   34.04826162 # occ.  0.00000000
 
ion      s     py     pz     px    dxy    dyz    dz2    dxz  x2-y2    tot
    1  0.000  0.001  0.004  0.002  0.156  0.068  0.150  0.035  0.015  0.431
    2  0.000  0.001  0.004  0.002  0.157  0.068  0.150  0.034  0.015  0.431
tot    0.000  0.002  0.008  0.004  0.314  0.136  0.299  0.069  0.030  0.862
 
band    37 # energy   34.04861433 # occ.  0.00000000
 
ion      s     py     pz     px    dxy    dyz    dz2    dxz  x2-y2    tot
    1  0.000  0.004  0.000  0.003  0.016  0.103  0.015  0.138  0.149  0.428
    2  0.000  0.004  0.000  0.003  0.016  0.105  0.015  0.140  0.150  0.433
tot    0.000  0.007  0.001  0.005  0.031  0.209  0.030  0.279  0.299  0.861
 
band    38 # energy   37.66398750 # occ.  0.00000000
 
ion      s     py     pz     px    dxy    dyz    dz2    dxz  x2-y2    tot
    1  0.000  0.006  0.038  0.017  0.017  0.005  0.106  0.004  0.009  0.202
    2  0.000  0.005  0.038  0.018  0.018  0.010  0.106  0.002  0.005  0.202
tot    0.000  0.011  0.076  0.035  0.035  0.016  0.211  0.005  0.014  0.404
 
band    39 # energy   37.72889194 # occ.  0.00000000
 
ion      s     py     pz     px    dxy    dyz    dz2    dxz  x2-y2    tot
    1  0.000  0.027  0.002  0.017  0.008  0.010  0.013  0.008  0.101  0.186
    2  0.000  0.028  0.002  0.019  0.010  0.036  0.007  0.017  0.060  0.181
tot    0.000  0.055  0.004  0.036  0.018  0.046  0.021  0.026  0.161  0.366
 
band    40 # energy   37.80549346 # occ.  0.00000000
 
ion      s     py     pz     px    dxy    dyz    dz2    dxz  x2-y2    tot
    1  0.000  0.002  0.001  0.001  0.047  0.012  0.027  0.019  0.028  0.137
    2  0.000  0.004  0.001  0.001  0.046  0.012  0.027  0.044  0.001  0.135
tot    0.000  0.006  0.001  0.003  0.093  0.024  0.054  0.063  0.028  0.272
 
band    41 # energy   37.82736667 # occ.  0.00000000
 
ion      s     py     pz     px    dxy    dyz    dz2    dxz  x2-y2    tot
    1  0.000  0.007  0.001  0.006  0.012  0.053  0.002  0.052  0.005  0.137
    2  0.001  0.004  0.000  0.004  0.005  0.027  0.010  0.016  0.080  0.148
tot    0.001  0.011  0.001  0.010  0.018  0.080  0.012  0.068  0.085  0.285
 
band    42 # energy   38.49000076 # occ.  0.00000000
 
ion      s     py     pz     px    dxy    dyz    dz2    dxz  x2-y2    tot
    1  0.000  0.000  0.000  0.000  0.000  0.000  0.000  0.000  0.000  0.001
    2  0.000  0.000  0.000  0.000  0.000  0.000  0.000  0.000  0.000  0.001
tot    0.000  0.000  0.000  0.000  0.000  0.000  0.000  0.000  0.000  0.002
 
band    43 # energy   38.59022221 # occ.  0.00000000
 
ion      s     py     pz     px    dxy    dyz    dz2    dxz  x2-y2    tot
    1  0.039  0.006  0.005  0.005  0.004  0.002  0.000  0.004  0.000  0.066
    2  0.034  0.005  0.006  0.005  0.003  0.003  0.000  0.003  0.000  0.060
tot    0.074  0.011  0.011  0.011  0.007  0.005  0.000  0.007  0.000  0.126
 
band    44 # energy   40.06954011 # occ.  0.00000000
 
ion      s     py     pz     px    dxy    dyz    dz2    dxz  x2-y2    tot
    1  0.109  0.005  0.001  0.004  0.074  0.081  0.001  0.074  0.000  0.349
    2  0.112  0.004  0.003  0.002  0.080  0.072  0.000  0.078  0.000  0.353
tot    0.221  0.009  0.005  0.006  0.155  0.153  0.001  0.152  0.000  0.701
 
band    45 # energy   43.98590785 # occ.  0.00000000
 
ion      s     py     pz     px    dxy    dyz    dz2    dxz  x2-y2    tot
    1  0.002  0.001  0.002  0.001  0.002  0.004  0.001  0.002  0.001  0.016
    2  0.002  0.001  0.002  0.000  0.003  0.001  0.001  0.004  0.000  0.015
tot    0.004  0.002  0.004  0.001  0.005  0.005  0.002  0.006  0.001  0.031
 
band    46 # energy   46.26538940 # occ.  0.00000000
 
ion      s     py     pz     px    dxy    dyz    dz2    dxz  x2-y2    tot
    1  0.000  0.015  0.002  0.021  0.003  0.033  0.005  0.016  0.038  0.132
    2  0.000  0.014  0.003  0.018  0.000  0.032  0.003  0.019  0.081  0.170
tot    0.000  0.029  0.005  0.038  0.003  0.065  0.008  0.035  0.119  0.302
 
band    47 # energy   46.53945947 # occ.  0.00000000
 
ion      s     py     pz     px    dxy    dyz    dz2    dxz  x2-y2    tot
    1  0.001  0.009  0.027  0.003  0.018  0.012  0.073  0.003  0.012  0.157
    2  0.001  0.016  0.023  0.007  0.020  0.005  0.068  0.002  0.001  0.144
tot    0.002  0.026  0.050  0.010  0.038  0.017  0.141  0.005  0.013  0.301
 
band    48 # energy   49.01515231 # occ.  0.00000000
 
ion      s     py     pz     px    dxy    dyz    dz2    dxz  x2-y2    tot
    1  0.008  0.002  0.011  0.004  0.064  0.041  0.053  0.013  0.042  0.237
    2  0.008  0.000  0.004  0.012  0.057  0.047  0.055  0.013  0.017  0.214
tot    0.016  0.002  0.015  0.017  0.121  0.088  0.109  0.025  0.058  0.451
 
band    49 # energy   51.11839127 # occ.  0.00000000
 
ion      s     py     pz     px    dxy    dyz    dz2    dxz  x2-y2    tot
    1  0.039  0.000  0.002  0.004  0.044  0.053  0.007  0.015  0.010  0.174
    2  0.039  0.001  0.002  0.003  0.021  0.095  0.010  0.008  0.014  0.193
tot    0.079  0.001  0.004  0.007  0.065  0.148  0.018  0.023  0.023  0.367
 
band    50 # energy   52.40497853 # occ.  0.00000000
 
ion      s     py     pz     px    dxy    dyz    dz2    dxz  x2-y2    tot
    1  0.005  0.005  0.020  0.004  0.047  0.007  0.016  0.125  0.016  0.246
    2  0.003  0.009  0.012  0.020  0.053  0.000  0.023  0.155  0.038  0.313
tot    0.008  0.014  0.033  0.023  0.100  0.007  0.039  0.280  0.053  0.559
 
band    51 # energy   52.50338388 # occ.  0.00000000
 
ion      s     py     pz     px    dxy    dyz    dz2    dxz  x2-y2    tot
    1  0.001  0.015  0.008  0.000  0.028  0.001  0.046  0.022  0.009  0.130
    2  0.000  0.009  0.008  0.003  0.034  0.001  0.046  0.004  0.009  0.114
tot    0.001  0.023  0.016  0.003  0.063  0.001  0.091  0.027  0.017  0.243
 
band    52 # energy   52.75693344 # occ.  0.00000000
 
ion      s     py     pz     px    dxy    dyz    dz2    dxz  x2-y2    tot
    1  0.000  0.007  0.002  0.016  0.009  0.060  0.009  0.030  0.048  0.181
    2  0.000  0.008  0.003  0.019  0.009  0.061  0.009  0.023  0.060  0.192
tot    0.000  0.015  0.005  0.035  0.019  0.121  0.018  0.053  0.107  0.373
 
band    53 # energy   56.73776127 # occ.  0.00000000
 
ion      s     py     pz     px    dxy    dyz    dz2    dxz  x2-y2    tot
    1  0.032  0.023  0.018  0.019  0.022  0.024  0.002  0.025  0.008  0.173
    2  0.032  0.025  0.026  0.006  0.023  0.026  0.006  0.017  0.007  0.169
tot    0.065  0.048  0.045  0.025  0.045  0.050  0.008  0.042  0.015  0.342
 
band    54 # energy   60.67193849 # occ.  0.00000000
 
ion      s     py     pz     px    dxy    dyz    dz2    dxz  x2-y2    tot
    1  0.004  0.001  0.020  0.007  0.000  0.013  0.012  0.004  0.018  0.078
    2  0.004  0.019  0.015  0.004  0.007  0.018  0.006  0.004  0.023  0.100
tot    0.008  0.020  0.035  0.010  0.007  0.032  0.018  0.009  0.040  0.179
 

 k-point     2 :    0.48979592 0.48979592 0.48979592     weight = 0.01000000

band     1 # energy  -19.67354893 # occ.  1.00000000
 
ion      s     py     pz     px    dxy    dyz    dz2    dxz  x2-y2    tot
    1  0.000  0.000  0.000  0.000  0.105  0.304  0.006  0.070  0.011  0.497
    2  0.000  0.000  0.000  0.000  0.105  0.304  0.006  0.070  0.011  0.497
tot    0.000  0.000  0.000  0.001  0.210  0.609  0.011  0.140  0.023  0.994
 
band     2 # energy  -19.67354893 # occ.  1.00000000
 
ion      s     py     pz     px    dxy    dyz    dz2    dxz  x2-y2    tot
    1  0.000  0.000  0.000  0.000  0.215  0.015  0.011  0.249  0.006  0.497
    2  0.000  0.000  0.000  0.000  0.215  0.015  0.011  0.249  0.006  0.497
tot    0.000  0.000  0.000  0.000  0.429  0.030  0.023  0.499  0.011  0.994
 
band     3 # energy  -19.62979947 # occ.  1.00000000
 
ion      s     py     pz     px    dxy    dyz    dz2    dxz  x2-y2    tot
    1  0.001  0.000  0.000  0.000  0.165  0.165  0.000  0.165  0.000  0.497
    2  0.001  0.000  0.000  0.000  0.165  0.165  0.000  0.165  0.000  0.497
tot    0.001  0.000  0.000  0.000  0.331  0.331  0.000  0.331  0.000  0.994
 
band     4 # energy  -19.56811816 # occ.  1.00000000
 
ion      s     py     pz     px    dxy    dyz    dz2    dxz  x2-y2    tot
    1  0.000  0.000  0.000  0.000  0.011  0.003  0.248  0.018  0.216  0.496
    2  0.000  0.000  0.000  0.000  0.011  0.003  0.248  0.018  0.216  0.496
tot    0.000  0.000  0.000  0.000  0.023  0.006  0.497  0.035  0.432  0.993
 
band     5 # energy  -19.56811816 # occ.  1.00000000
 
ion      s     py     pz     px    dxy    dyz    dz2    dxz  x2-y2    tot
    1  0.000  0.000  0.000  0.000  0.010  0.018  0.216  0.004  0.248  0.496
    2  0.000  0.000  0.000  0.000  0.010  0.018  0.216  0.004  0.248  0.496
tot    0.000  0.000  0.000  0.000  0.020  0.037  0.432  0.007  0.497  0.993
 
band     6 # energy  -19.42851884 # occ.  1.00000000
 
ion      s     py     pz     px    dxy    dyz    dz2    dxz  x2-y2    tot
    1  0.000  0.000  0.000  0.000  0.010  0.000  0.401  0.008  0.080  0.498
    2  0.000  0.000  0.000  0.000  0.010  0.000  0.401  0.008  0.080  0.498
tot    0.000  0.000  0.000  0.000  0.019  0.000  0.802  0.015  0.159  0.997
 
band     7 # energy  -19.42851883 # occ.  1.00000000
 
ion      s     py     pz     px    dxy    dyz    dz2    dxz  x2-y2    tot
    1  0.000  0.000  0.000  0.000  0.002  0.011  0.080  0.004  0.401  0.498
    2  0.000  0.000  0.000  0.000  0.002  0.011  0.080  0.004  0.401  0.498
tot    0.000  0.000  0.000  0.000  0.004  0.023  0.159  0.008  0.802  0.997
 
band     8 # energy  -19.41466218 # occ.  1.00000000
 
ion      s     py     pz     px    dxy    dyz    dz2    dxz  x2-y2    tot
    1  0.001  0.000  0.000  0.000  0.166  0.166  0.000  0.166  0.000  0.498
    2  0.001  0.000  0.000  0.000  0.166  0.166  0.000  0.166  0.000  0.498
tot    0.001  0.000  0.000  0.000  0.332  0.332  0.000  0.332  0.000  0.996
 
band     9 # energy  -19.35161539 # occ.  1.00000000
 
ion      s     py     pz     px    dxy    dyz    dz2    dxz  x2-y2    tot
    1  0.000  0.000  0.000  0.000  0.251  0.040  0.026  0.176  0.006  0.499
    2  0.000  0.000  0.000  0.000  0.251  0.040  0.026  0.176  0.006  0.499
tot    0.000  0.000  0.000  0.000  0.501  0.079  0.053  0.351  0.013  0.997
 
band    10 # energy  -19.35161539 # occ.  1.00000000
 
ion      s     py     pz     px    dxy    dyz    dz2    dxz  x2-y2    tot
    1  0.000  0.000  0.000  0.000  0.060  0.271  0.006  0.135  0.026  0.499
    2  0.000  0.000  0.000  0.000  0.060  0.271  0.006  0.135  0.026  0.499
tot    0.000  0.000  0.000  0.000  0.120  0.542  0.013  0.270  0.053  0.997
 
band    11 # energy   -5.60498277 # occ.  1.00000000
 
ion      s     py     pz     px    dxy    dyz    dz2    dxz  x2-y2    tot
    1  0.317  0.006  0.006  0.006  0.002  0.002  0.000  0.002  0.000  0.342
    2  0.317  0.006  0.006  0.006  0.002  0.002  0.000  0.002  0.000  0.342
tot    0.634  0.013  0.013  0.013  0.004  0.004  0.000  0.004  0.000  0.684
 
band    12 # energy   -2.63750561 # occ.  1.00000000
 
ion      s     py     pz     px    dxy    dyz    dz2    dxz  x2-y2    tot
    1  0.168  0.042  0.042  0.042  0.001  0.001  0.000  0.001  0.000  0.297
    2  0.168  0.042  0.042  0.042  0.001  0.001  0.000  0.001  0.000  0.297
tot    0.335  0.085  0.085  0.085  0.001  0.001  0.000  0.001  0.000  0.594
 
band    13 # energy    3.35596009 # occ.  1.00000000
 
ion      s     py     pz     px    dxy    dyz    dz2    dxz  x2-y2    tot
    1  0.000  0.164  0.148  0.001  0.006  0.000  0.002  0.007  0.001  0.329
    2  0.000  0.164  0.148  0.001  0.006  0.000  0.002  0.007  0.001  0.329
tot    0.000  0.327  0.296  0.003  0.012  0.000  0.004  0.014  0.002  0.657
 
band    14 # energy    3.35596010 # occ.  1.00000000
 
ion      s     py     pz     px    dxy    dyz    dz2    dxz  x2-y2    tot
    1  0.000  0.045  0.061  0.207  0.003  0.009  0.001  0.002  0.002  0.329
    2  0.000  0.045  0.061  0.207  0.003  0.009  0.001  0.002  0.002  0.329
tot    0.000  0.090  0.121  0.414  0.005  0.017  0.002  0.004  0.004  0.657
 
band    15 # energy    5.32357043 # occ.  0.00000000
 
ion      s     py     pz     px    dxy    dyz    dz2    dxz  x2-y2    tot
    1  0.220  0.019  0.019  0.019  0.010  0.010  0.000  0.010  0.000  0.306
    2  0.220  0.019  0.019  0.019  0.010  0.010  0.000  0.010  0.000  0.306
tot    0.440  0.038  0.038  0.038  0.019  0.019  0.000  0.019  0.000  0.612
 
band    16 # energy    8.71665893 # occ.  0.00000000
 
ion      s     py     pz     px    dxy    dyz    dz2    dxz  x2-y2    tot
    1  0.000  0.078  0.084  0.000  0.019  0.000  0.031  0.018  0.009  0.238
    2  0.000  0.078  0.084  0.000  0.019  0.000  0.031  0.018  0.009  0.238
tot    0.000  0.156  0.167  0.001  0.038  0.000  0.061  0.035  0.018  0.475
 
band    17 # energy    8.71665894 # occ.  0.00000000
 
ion      s     py     pz     px    dxy    dyz    dz2    dxz  x2-y2    tot
    1  0.000  0.030  0.024  0.108  0.005  0.024  0.009  0.007  0.031  0.238
    2  0.000  0.030  0.024  0.108  0.005  0.024  0.009  0.007  0.031  0.238
tot    0.000  0.060  0.049  0.215  0.011  0.048  0.018  0.013  0.061  0.475
 
band    18 # energy   12.22082182 # occ.  0.00000000
 
ion      s     py     pz     px    dxy    dyz    dz2    dxz  x2-y2    tot
    1  0.005  0.023  0.023  0.023  0.006  0.006  0.000  0.006  0.000  0.092
    2  0.005  0.023  0.023  0.023  0.006  0.006  0.000  0.006  0.000  0.092
tot    0.009  0.045  0.045  0.045  0.013  0.013  0.000  0.013  0.000  0.183
 
band    19 # energy   15.53662560 # occ.  0.00000000
 
ion      s     py     pz     px    dxy    dyz    dz2    dxz  x2-y2    tot
    1  0.026  0.060  0.060  0.060  0.012  0.012  0.000  0.012  0.000  0.242
    2  0.026  0.060  0.060  0.060  0.012  0.012  0.000  0.012  0.000  0.242
tot    0.052  0.120  0.120  0.120  0.024  0.024  0.000  0.024  0.000  0.485
 
band    20 # energy   16.18415137 # occ.  0.00000000
 
ion      s     py     pz     px    dxy    dyz    dz2    dxz  x2-y2    tot
    1  0.078  0.082  0.082  0.081  0.002  0.002  0.000  0.002  0.000  0.328
    2  0.078  0.082  0.082  0.082  0.002  0.002  0.000  0.002  0.000  0.328
tot    0.157  0.163  0.163  0.163  0.003  0.003  0.000  0.003  0.000  0.656
 
band    21 # energy   16.27367508 # occ.  0.00000000
 
ion      s     py     pz     px    dxy    dyz    dz2    dxz  x2-y2    tot
    1  0.000  0.021  0.018  0.078  0.001  0.005  0.017  0.001  0.058  0.198
    2  0.000  0.021  0.018  0.078  0.001  0.005  0.017  0.001  0.058  0.198
tot    0.000  0.042  0.035  0.155  0.002  0.009  0.034  0.003  0.116  0.397
 
band    22 # energy   16.27367514 # occ.  0.00000000
 
ion      s     py     pz     px    dxy    dyz    dz2    dxz  x2-y2    tot
    1  0.000  0.056  0.060  0.000  0.004  0.000  0.058  0.003  0.017  0.198
    2  0.000  0.056  0.060  0.000  0.004  0.000  0.058  0.003  0.017  0.198
tot    0.000  0.113  0.120  0.000  0.007  0.000  0.116  0.007  0.034  0.397
 
band    23 # energy   17.73258512 # occ.  0.00000000
 
ion      s     py     pz     px    dxy    dyz    dz2    dxz  x2-y2    tot
    1  0.000  0.003  0.003  0.000  0.090  0.000  0.045  0.096  0.017  0.255
    2  0.000  0.003  0.003  0.000  0.090  0.000  0.045  0.096  0.017  0.255
tot    0.000  0.007  0.006  0.000  0.180  0.001  0.089  0.193  0.034  0.510
 
band    24 # energy   17.73258513 # occ.  0.00000000
 
ion      s     py     pz     px    dxy    dyz    dz2    dxz  x2-y2    tot
    1  0.000  0.001  0.001  0.004  0.035  0.124  0.017  0.028  0.045  0.255
    2  0.000  0.001  0.001  0.004  0.035  0.124  0.017  0.028  0.045  0.255
tot    0.000  0.002  0.002  0.009  0.069  0.248  0.034  0.056  0.089  0.510
 
band    25 # energy   23.92040561 # occ.  0.00000000
 
ion      s     py     pz     px    dxy    dyz    dz2    dxz  x2-y2    tot
    1  0.022  0.025  0.025  0.025  0.013  0.013  0.000  0.013  0.000  0.134
    2  0.022  0.025  0.025  0.025  0.013  0.013  0.000  0.013  0.000  0.134
tot    0.044  0.050  0.050  0.049  0.025  0.025  0.000  0.025  0.000  0.269
 
band    26 # energy   26.33155058 # occ.  0.00000000
 
ion      s     py     pz     px    dxy    dyz    dz2    dxz  x2-y2    tot
    1  0.052  0.003  0.003  0.003  0.104  0.104  0.000  0.104  0.000  0.371
    2  0.052  0.003  0.003  0.002  0.104  0.104  0.000  0.103  0.000  0.370
tot    0.104  0.005  0.005  0.005  0.208  0.208  0.000  0.207  0.000  0.741
 
band    27 # energy   26.73350744 # occ.  0.00000000
 
ion      s     py     pz     px    dxy    dyz    dz2    dxz  x2-y2    tot
    1  0.000  0.017  0.016  0.000  0.006  0.000  0.041  0.006  0.016  0.101
    2  0.000  0.017  0.016  0.000  0.006  0.000  0.041  0.006  0.016  0.101
tot    0.000  0.034  0.031  0.000  0.011  0.000  0.081  0.012  0.032  0.203
 
band    28 # energy   26.73356015 # occ.  0.00000000
 
ion      s     py     pz     px    dxy    dyz    dz2    dxz  x2-y2    tot
    1  0.000  0.005  0.006  0.022  0.002  0.008  0.016  0.002  0.041  0.102
    2  0.000  0.005  0.006  0.022  0.002  0.008  0.016  0.002  0.041  0.102
tot    0.000  0.009  0.012  0.043  0.005  0.016  0.033  0.004  0.082  0.203
 
band    29 # energy   27.75300131 # occ.  0.00000000
 
ion      s     py     pz     px    dxy    dyz    dz2    dxz  x2-y2    tot
    1  0.000  0.003  0.003  0.000  0.007  0.000  0.127  0.007  0.046  0.191
    2  0.000  0.003  0.003  0.000  0.007  0.000  0.126  0.007  0.046  0.191