 running on   54 total cores
 distrk:  each k-point on    9 cores,    6 groups
 distr:  one band on    3 cores,    3 groups
 using from now: INCAR     
 vasp.5.4.4.18Apr17-6-g9f103f2a35 (build Sep 01 2023 15:42:28) complex          
  
 POSCAR found type information on POSCAR  Ge
 POSCAR found :  1 types and       2 ions
 scaLAPACK will be used

 ----------------------------------------------------------------------------- 
|                                                                             |
|           W    W    AA    RRRRR   N    N  II  N    N   GGGG   !!!           |
|           W    W   A  A   R    R  NN   N  II  NN   N  G    G  !!!           |
|           W    W  A    A  R    R  N N  N  II  N N  N  G       !!!           |
|           W WW W  AAAAAA  RRRRR   N  N N  II  N  N N  G  GGG   !            |
|           WW  WW  A    A  R   R   N   NN  II  N   NN  G    G                |
|           W    W  A    A  R    R  N    N  II  N    N   GGGG   !!!           |
|                                                                             |
|      For optimal performance we recommend to set                            |
|        NCORE= 4 - approx SQRT( number of cores)                             |
|      NCORE specifies how many cores store one orbital (NPAR=cpu/NCORE).     |
|      This setting can  greatly improve the performance of VASP for DFT.     |
|      The default,   NCORE=1            might be grossly inefficient         |
|      on modern multi-core architectures or massively parallel machines.     |
|      Do your own testing !!!!                                               |
|      Unfortunately you need to use the default for GW and RPA calculations. |
|      (for HF NCORE is supported but not extensively tested yet)             |
|                                                                             |
 ----------------------------------------------------------------------------- 


 ----------------------------------------------------------------------------- 
|                                                                             |
|           W    W    AA    RRRRR   N    N  II  N    N   GGGG   !!!           |
|           W    W   A  A   R    R  NN   N  II  NN   N  G    G  !!!           |
|           W    W  A    A  R    R  N N  N  II  N N  N  G       !!!           |
|           W WW W  AAAAAA  RRRRR   N  N N  II  N  N N  G  GGG   !            |
|           WW  WW  A    A  R   R   N   NN  II  N   NN  G    G                |
|           W    W  A    A  R    R  N    N  II  N    N   GGGG   !!!           |
|                                                                             |
|      You have enabled k-point parallelism (KPAR>1).                         |
|      This developmental code was originally  written by Paul Kent at ORNL,  |
|      and carefully double checked in Vienna.                                |
|      GW as well as linear response parallelism added by Martijn Marsman     |
|      and Georg Kresse.                                                      |
|      Carefully verify results versus KPAR=1.                                |
|      Report problems to Paul Kent and Vienna.                               |
|                                                                             |
 ----------------------------------------------------------------------------- 

 LDA part: xc-table for Pade appr. of Perdew
 found WAVECAR, reading the header
  number of k-points has changed, file:    16 present:   100
  trying to continue reading WAVECAR, but it might fail
 WARNING: stress and forces are not correct
 POSCAR, INCAR and KPOINTS ok, starting setup
 FFT: planning ...
 reading WAVECAR
 the WAVECAR file was read successfully
 charge-density read from file: unknown                                 
 magnetization density read from file 1
 entering main loop
       N       E                     dE             d eps       ncg     rms          ort
 gam= 0.000 g(H,U,f)=  0.762E+02 0.562E+02 0.285E-11 ort(H,U,f) = 0.000E+00 0.000E+00 0.000E+00
SDA:   1     0.100462390777E+03    0.10046E+03   -0.52952E+02  5400   0.132E+03 0.000E+00
 gam= 0.382 g(H,U,f)=  0.151E+02 0.288E+02 0.211E-39 ort(H,U,f) = 0.279E+02 0.341E+02 0.260E-39
DMP:   2     0.630160499728E+02   -0.37446E+02   -0.27053E+02  5400   0.439E+02 0.620E+02
 gam= 0.382 g(H,U,f)=  0.353E+01 0.243E+02 0.771E-15 ort(H,U,f) = 0.448E+01 0.457E+02 0.154E-14
DMP:   3     0.399232419338E+02   -0.23093E+02   -0.18809E+02  5400   0.278E+02 0.502E+02
 gam= 0.382 g(H,U,f)=  0.199E+01 0.160E+02 0.760E+00 ort(H,U,f) =-0.126E+01 0.380E+02 0.197E+01
DMP:   4     0.215706978004E+02   -0.18353E+02   -0.13400E+02  5400   0.187E+02 0.387E+02
 gam= 0.382 g(H,U,f)=  0.122E+01 0.925E+01 0.148E+01 ort(H,U,f) = 0.199E+00 0.254E+02 0.404E+01
DMP:   5     0.996940146242E+01   -0.11601E+02   -0.93093E+01  5400   0.119E+02 0.297E+02
 gam= 0.382 g(H,U,f)=  0.349E+00 0.409E+01 0.480E+00 ort(H,U,f) = 0.444E+00 0.125E+02 0.145E+01
DMP:   6     0.232843256332E+01   -0.76410E+01   -0.41720E+01  5400   0.492E+01 0.144E+02
 gam= 0.382 g(H,U,f)=  0.107E+00 0.192E+01 0.106E+00 ort(H,U,f) = 0.118E+00 0.636E+01 0.338E+00
DMP:   7    -0.109419149546E+01   -0.34226E+01   -0.18948E+01  5400   0.213E+01 0.682E+01
 gam= 0.382 g(H,U,f)=  0.447E-01 0.896E+00 0.102E-02 ort(H,U,f) = 0.341E-01 0.317E+01 0.348E-02
DMP:   8    -0.267328708572E+01   -0.15791E+01   -0.86599E+00  5400   0.941E+00 0.320E+01
 gam= 0.382 g(H,U,f)=  0.141E-01 0.399E+00 0.448E-06 ort(H,U,f) = 0.124E-01 0.150E+01 0.162E-05
DMP:   9    -0.341092627974E+01   -0.73764E+00   -0.39617E+00  5400   0.413E+00 0.151E+01
 gam= 0.382 g(H,U,f)=  0.522E-02 0.167E+00 0.190E-09 ort(H,U,f) = 0.144E-02 0.663E+00 0.731E-09
DMP:  10    -0.374434458324E+01   -0.33342E+00   -0.17039E+00  5400   0.172E+00 0.665E+00
 gam= 0.382 g(H,U,f)=  0.260E-02 0.641E-01 0.508E-12 ort(H,U,f) = 0.773E-03 0.270E+00 0.206E-11
DMP:  11    -0.388459007153E+01   -0.14025E+00   -0.68021E-01  5400   0.667E-01 0.271E+00
 gam= 0.382 g(H,U,f)=  0.104E-02 0.226E-01 0.228E-12 ort(H,U,f) = 0.917E-03 0.101E+00 0.101E-11
DMP:  12    -0.393927605564E+01   -0.54686E-01   -0.25073E-01  5400   0.237E-01 0.102E+00
 gam= 0.382 g(H,U,f)=  0.373E-03 0.739E-02 0.285E-13 ort(H,U,f) = 0.452E-03 0.353E-01 0.133E-12
DMP:  13    -0.395900571062E+01   -0.19730E-01   -0.85670E-02  5400   0.777E-02 0.357E-01
 gam= 0.382 g(H,U,f)=  0.147E-03 0.224E-02 0.315E-13 ort(H,U,f) = 0.177E-03 0.115E-01 0.155E-12
DMP:  14    -0.396563176105E+01   -0.66261E-02   -0.27402E-02  5400   0.239E-02 0.117E-01
 gam= 0.382 g(H,U,f)=  0.553E-04 0.624E-03 0.155E-14 ort(H,U,f) = 0.726E-04 0.350E-02 0.878E-14
DMP:  15    -0.396771696443E+01   -0.20852E-02   -0.81752E-03  5400   0.680E-03 0.357E-02
 gam= 0.382 g(H,U,f)=  0.188E-04 0.156E-03 0.247E-17 ort(H,U,f) = 0.247E-04 0.977E-03 0.157E-16
DMP:  16    -0.396832622887E+01   -0.60926E-03   -0.22293E-03  5400   0.175E-03 0.100E-02
 gam= 0.382 g(H,U,f)=  0.692E-05 0.332E-04 0.529E-16 ort(H,U,f) = 0.675E-05 0.242E-03 0.404E-15
DMP:  17    -0.396848748982E+01   -0.16126E-03   -0.54042E-04  5400   0.402E-04 0.249E-03
 gam= 0.382 g(H,U,f)=  0.275E-05 0.551E-05 0.137E-16 ort(H,U,f) = 0.215E-05 0.490E-04 0.641E-16
DMP:  18    -0.396852477232E+01   -0.37283E-04   -0.11118E-04  5400   0.826E-05 0.511E-04
 final diagonalization
   1 F= -.39685248E+01 E0= -.39685248E+01  d E =-.540596E-11  mag=    -0.0000
