unknown system                          
   1.00000000000000     
     0.000000    2.816500    2.816500
     2.816500    0.000000    2.816500
     2.816500    2.816500    0.000000
   Ge
     2
Direct
  0.000000  0.000000  0.000000
  0.250000  0.250000  0.250000
 
   48   48   48
  841.84      818.74      752.93      653.97      535.24      411.09      294.46      195.17      119.06      67.598    
  38.134      24.684      19.508      16.303      13.895      12.075      10.663      9.5419      8.6450      7.9349    
  7.3881      6.9861      6.7125      6.5541      6.5023      6.5541      6.7125      6.9861      7.3881      7.9349    
  8.6450      9.5419      10.663      12.075      13.895      16.303      19.508      24.684      38.134      67.598    
  119.06      195.17      294.46      411.09      535.24      653.97      752.93      818.74      818.74      774.14    
  691.63      582.90      462.01      342.67      236.20      150.29      88.439      49.887      30.146      22.208    
  18.539      15.814      13.765      12.193      10.953      9.9605      9.1665      8.5446      8.0754      7.7418    
  7.5290      7.4256      7.4256      7.5289      7.7418      8.0754      8.5446      9.1665      9.9605      10.954    
  12.193      13.765      15.814      18.539      22.208      30.146      49.887      88.439      150.29      236.20    
  342.67      462.01      582.90      691.63      774.14      818.74      752.93      691.63      599.60      489.46    
  374.72      267.50      176.91      108.16      62.355      36.660      25.233      20.719      17.723      15.465    
  13.749      12.407      11.335      10.473      9.7904      9.2653      8.8808      8.6205      8.4706      8.4218    
  8.4706      8.6205      8.8808      9.2653      9.7904      10.473      11.335      12.407      13.749      15.465    
  17.723      20.719      25.233      36.660      62.355      108.16      176.91      267.50      374.72      489.46    
  599.60      691.63      752.93      774.46      653.97      582.90      489.46      385.96      284.45      194.80    
  123.56      73.430      43.228      28.497      22.707      19.517      17.098      15.266      13.849      12.722    
  11.817      11.095      10.534      10.115      9.8227      9.6386      9.5501      9.5501      9.6386      9.8227    
  10.115      10.534      11.095      11.817      12.722      13.849      15.266      17.098      19.517      22.707    
  28.497      43.228      73.430      123.56      194.80      284.45      385.96      489.46      582.90      653.97    
  692.42      692.42      535.24      462.01      374.72      284.45      201.10      132.00      81.063      48.582    
  31.517      24.427      21.079      18.568      16.670      15.212      14.064      13.146      12.414      11.846    
  11.421      11.120      10.924      10.814      10.779      10.814      10.924      11.120      11.421      11.846    
  12.414      13.146      14.064      15.212      16.670      18.568      21.079      24.427      31.517      48.582    
  81.063      132.00      201.10      284.45      374.72      462.01      535.24      584.11      601.29      584.11    
  411.09      342.67      267.50      194.80      132.00      83.784      51.590      33.670      25.760      22.294    
  19.781      17.877      16.425      15.294      14.401      13.696      13.156      12.759      12.484      12.307    
  12.205      12.160      12.160      12.205      12.307      12.484      12.759      13.156      13.696      14.401    
  15.294      16.425      17.877      19.781      22.294      25.760      33.670      51.590      83.784      132.00    
  194.80      267.50      342.67      411.09      463.37      491.71      491.71      463.37      294.46      236.20    
  176.91      123.56      81.063      51.590      34.452      26.500      23.066      20.647      18.808      17.415    
  16.346      15.516      14.877      14.404      14.075      13.868      13.752      13.698      13.678      13.674    
  13.678      13.698      13.752      13.868      14.075      14.404      14.877      15.516      16.346      17.415    
  18.808      20.647      23.066      26.500      34.452      51.590      81.063      123.56      176.91      236.20    
  294.46      343.81      376.92      388.58      376.92      343.81      195.17      150.29      108.16      73.430    
  48.582      33.670      26.500      23.331      21.099      19.396      18.117      17.152      16.425      15.890    
  15.523      15.304      15.208      15.200      15.240      15.292      15.326      15.326      15.292      15.240    
  15.200      15.208      15.304      15.523      15.890      16.425      17.152      18.117      19.396      21.099    
  23.331      26.500      33.670      48.582      73.430      108.16      150.29      195.17      236.82      268.99    
  286.54      286.54      268.99      236.82      119.06      88.439      62.355      43.228      31.517      25.760    
  23.066      21.099      19.598      18.482      17.660      17.069      16.670      16.442      16.370      16.425    
  16.569      16.753      16.927      17.050      17.094      17.050      16.927      16.753      16.569      16.425    
  16.370      16.442      16.670      17.069      17.660      18.482      19.598      21.099      23.066      25.760    
  31.517      43.228      62.355      88.439      119.06      150.23      177.24      195.60      202.11      195.60    
  177.24      150.23      67.598      49.887      36.660      28.497      24.427      22.294      20.647      19.396    
  18.482      17.834      17.403      17.162      17.098      17.197      17.435      17.769      18.139      18.487    
  18.788      18.973      18.973      18.788      18.487      18.139      17.769      17.435      17.197      17.098    
  17.162      17.403      17.834      18.482      19.396      20.647      22.294      24.428      28.497      36.660    
  49.887      67.598      87.746      107.25      122.73      131.29      131.29      122.73      107.25      87.746    
  38.134      30.146      25.233      22.707      21.079      19.781      18.808      18.117      17.660      17.403    
  17.330      17.439      17.723      18.160      18.706      19.297      19.961      20.678      21.253      21.474    
  21.253      20.678      19.961      19.297      18.706      18.160      17.723      17.439      17.330      17.403    
  17.660      18.117      18.808      19.781      21.079      22.707      25.233      30.146      38.134      48.721    
  60.404      71.058      78.526      81.211      78.526      71.058      60.404      48.721      24.684      22.208    
  20.719      19.517      18.568      17.877      17.415      17.152      17.069      17.162      17.439      17.903    
  18.539      19.303      20.164      21.291      22.647      23.906      24.667      24.667      23.906      22.647    
  21.291      20.164      19.303      18.539      17.903      17.439      17.162      17.069      17.152      17.415    
  17.877      18.568      19.517      20.719      22.208      24.684      28.707      34.028      39.726      44.540    
  47.298      47.298      44.540      39.726      34.028      28.707      19.508      18.539      17.723      17.098    
  16.670      16.425      16.346      16.425      16.670      17.098      17.723      18.539      19.508      20.641    
  22.248      24.334      26.487      28.116      28.724      28.116      26.487      24.334      22.248      20.641    
  19.508      18.539      17.723      17.098      16.670      16.425      16.346      16.425      16.670      17.098    
  17.723      18.539      19.508      20.641      22.248      24.334      26.487      28.116      28.724      28.116    
  26.487      24.334      22.248      20.641      16.303      15.814      15.465      15.266      15.212      15.294    
  15.516      15.890      16.442      17.197      18.160      19.303      20.641      22.599      25.315      28.382    
  31.071      32.643      32.643      31.071      28.382      25.315      22.599      20.641      19.303      18.160    
  17.197      16.442      15.890      15.516      15.294      15.212      15.266      15.465      15.814      16.303    
  16.903      17.559      18.205      18.842      19.415      19.765      19.765      19.415      18.842      18.205    
  17.559      16.903      13.895      13.765      13.749      13.849      14.064      14.401      14.877      15.523    
  16.370      17.435      18.706      20.164      22.248      25.315      29.079      32.779      35.494      36.491    
  35.494      32.779      29.079      25.315      22.248      20.164      18.706      17.435      16.370      15.523    
  14.877      14.401      14.064      13.849      13.749      13.765      13.895      14.129      14.443      14.796    
  15.141      15.428      15.619      15.685      15.619      15.428      15.141      14.796      14.443      14.129    
  12.075      12.193      12.407      12.722      13.146      13.696      14.404      15.304      16.425      17.769    
  19.297      21.291      24.334      28.382      32.779      36.536      38.703      38.703      36.536      32.779    
  28.382      24.334      21.291      19.297      17.769      16.425      15.304      14.404      13.696      13.146    
  12.722      12.407      12.193      12.075      12.048      12.101      12.214      12.359      12.504      12.619    
  12.683      12.683      12.619      12.504      12.359      12.214      12.101      12.048      10.663      10.953    
  11.335      11.817      12.414      13.156      14.075      15.208      16.569      18.139      19.961      22.647    
  26.487      31.071      35.494      38.703      39.876      38.703      35.494      31.071      26.487      22.647    
  19.961      18.139      16.569      15.208      14.075      13.156      12.414      11.817      11.335      10.953    
  10.663      10.457      10.329      10.267      10.255      10.273      10.303      10.327      10.337      10.327    
  10.303      10.273      10.255      10.267      10.329      10.457      9.5419      9.9605      10.473      11.095    
  11.846      12.759      13.868      15.200      16.753      18.487      20.678      23.906      28.116      32.643    
  36.491      38.703      38.703      36.491      32.643      28.116      23.906      20.678      18.487      16.753    
  15.200      13.868      12.759      11.846      11.095      10.473      9.9605      9.5419      9.2092      8.9551    
  8.7709      8.6454      8.5658      8.5192      8.4948      8.4846      8.4847      8.4948      8.5192      8.5658    
  8.6454      8.7709      8.9551      9.2092      8.6450      9.1665      9.7904      10.534      11.421      12.484    
  13.752      15.240      16.927      18.788      21.253      24.667      28.724      32.643      35.494      36.536    
  35.494      32.643      28.724      24.667      21.253      18.788      16.927      15.240      13.752      12.484    
  11.421      10.534      9.7904      9.1665      8.6450      8.2147      7.8675      7.5950      7.3878      7.2354    
  7.1279      7.0571      7.0169      7.0039      7.0169      7.0571      7.1279      7.2354      7.3878      7.5951    
  7.8675      8.2147      7.9349      8.5446      9.2653      10.115      11.120      12.307      13.698      15.292    
  17.050      18.973      21.474      24.667      28.116      31.071      32.779      32.779      31.071      28.116    
  24.667      21.474      18.973      17.050      15.292      13.698      12.307      11.120      10.115      9.2653    
  8.5446      7.9349      7.4236      7.0015      6.6600      6.3899      6.1815      6.0256      5.9147      5.8433    
  5.8083      5.8083      5.8433      5.9147      6.0256      6.1815      6.3899      6.6600      7.0015      7.4236    
  7.3881      8.0754      8.8808      9.8227      10.924      12.205      13.678      15.326      17.094      18.973    
  21.253      23.906      26.487      28.382      29.079      28.382      26.487      23.906      21.253      18.973    
  17.094      15.326      13.678      12.205      10.924      9.8227      8.8808      8.0753      7.3881      6.8061    
  6.3195      5.9196      5.5971      5.3425      5.1462      5.0006      4.8997      4.8403      4.8207      4.8403    
  4.8997      5.0006      5.1462      5.3425      5.5971      5.9196      6.3195      6.8061      6.9861      7.7418    
  8.6205      9.6386      10.814      12.160      13.674      15.326      17.050      18.788      20.678      22.647    
  24.334      25.315      25.315      24.334      22.647      20.678      18.788      17.050      15.326      13.674    
  12.160      10.814      9.6386      8.6205      7.7418      6.9861      6.3410      5.7968      5.3448      4.9759    
  4.6802      4.4482      4.2714      4.1432      4.0594      4.0180      4.0180      4.0595      4.1432      4.2714    
  4.4482      4.6802      4.9758      5.3448      5.7968      6.3411      6.7125      7.5290      8.4706      9.5501    
  10.779      12.160      13.678      15.292      16.927      18.487      19.961      21.291      22.248      22.599    
  22.248      21.291      19.961      18.487      16.927      15.292      13.678      12.160      10.779      9.5501    
  8.4706      7.5290      6.7125      6.0104      5.4136      4.9138      4.5020      4.1685      3.9034      3.6974    
  3.5434      3.4362      3.3728      3.3518      3.3728      3.4362      3.5434      3.6974      3.9034      4.1685    
  4.5020      4.9138      5.4136      6.0104      6.5541      7.4256      8.4218      9.5501      10.814      12.205    
  13.698      15.240      16.753      18.139      19.297      20.164      20.641      20.641      20.164      19.297    
  18.139      16.753      15.240      13.698      12.205      10.814      9.5501      8.4217      7.4256      6.5541    
  5.7993      5.1533      4.6083      4.1559      3.7863      3.4894      3.2557      3.0769      2.9470      2.8621    
  2.8201      2.8201      2.8621      2.9470      3.0769      3.2557      3.4895      3.7863      4.1559      4.6083    
  5.1532      5.7992      6.5023      7.4256      8.4706      9.6386      10.924      12.307      13.752      15.200    
  16.569      17.769      18.706      19.303      19.508      19.303      18.706      17.769      16.569      15.200    
  13.752      12.307      10.924      9.6386      8.4706      7.4256      6.5023      5.6966      5.0026      4.4135    
  3.9212      3.5160      3.1878      2.9266      2.7235      2.5716      2.4659      2.4036      2.3829      2.4036    
  2.4659      2.5716      2.7235      2.9266      3.1878      3.5160      3.9212      4.4135      5.0026      5.6966    
  6.5541      7.5289      8.6205      9.8227      11.120      12.484      13.868      15.208      16.425      17.435    
  18.160      18.539      18.539      18.160      17.435      16.425      15.208      13.868      12.484      11.120    
  9.8227      8.6205      7.5290      6.5541      5.6966      4.9534      4.3189      3.7855      3.3438      2.9834    
  2.6940      2.4662      2.2922      2.1662      2.0841      2.0436      2.0436      2.0841      2.1662      2.2922    
  2.4662      2.6940      2.9834      3.3437      3.7855      4.3189      4.9534      5.6966      6.7125      7.7418    
  8.8808      10.115      11.421      12.759      14.075      15.304      16.370      17.197      17.723      17.903    
  17.723      17.197      16.370      15.304      14.075      12.759      11.421      10.115      8.8808      7.7418    
  6.7125      5.7993      5.0026      4.3189      3.7411      3.2601      2.8652      2.5457      2.2917      2.0947    
  1.9478      1.8462      1.7865      1.7668      1.7865      1.8462      1.9478      2.0947      2.2917      2.5457    
  2.8652      3.2601      3.7411      4.3189      5.0026      5.7993      6.9861      8.0754      9.2653      10.534    
  11.846      13.156      14.404      15.523      16.442      17.098      17.439      17.439      17.098      16.442    
  15.523      14.404      13.156      11.846      10.534      9.2653      8.0753      6.9861      6.0104      5.1533    
  4.4135      3.7855      3.2601      2.8265      2.4736      2.1906      1.9685      1.7995      1.6778      1.5990    
  1.5603      1.5603      1.5990      1.6778      1.7995      1.9685      2.1906      2.4736      2.8265      3.2601    
  3.7855      4.4135      5.1532      6.0104      7.3881      8.5446      9.7904      11.095      12.414      13.696    
  14.877      15.890      16.670      17.162      17.330      17.162      16.670      15.890      14.877      13.696    
  12.414      11.095      9.7904      8.5446      7.3881      6.3410      5.4136      4.6083      3.9212      3.3438    
  2.8652      2.4736      2.1575      1.9070      1.7134      1.5700      1.4714      1.4138      1.3948      1.4138    
  1.4714      1.5700      1.7134      1.9070      2.1575      2.4736      2.8652      3.3438      3.9212      4.6083    
  5.4136      6.3410      7.9349      9.1665      10.473      11.817      13.146      14.401      15.516      16.425    
  17.069      17.403      17.403      17.069      16.425      15.516      14.401      13.146      11.817      10.473    
  9.1665      7.9349      6.8061      5.7968      4.9138      4.1559      3.5160      2.9834      2.5457      2.1906    
  1.9070      1.6852      1.5174      1.3972      1.3199      1.2821      1.2821      1.3199      1.3972      1.5174    
  1.6852      1.9070      2.1906      2.5457      2.9834      3.5160      4.1559      4.9138      5.7968      6.8061    
  8.6450      9.9605      11.335      12.722      14.064      15.294      16.346      17.152      17.660      17.834    
  17.660      17.152      16.346      15.294      14.064      12.722      11.335      9.9605      8.6450      7.4236    
  6.3195      5.3448      4.5020      3.7863      3.1878      2.6940      2.2917      1.9685      1.7134      1.5174    
  1.3729      1.2741      1.2166      1.1978      1.2166      1.2741      1.3729      1.5174      1.7134      1.9685    
  2.2917      2.6940      3.1878      3.7863      4.5020      5.3448      6.3195      7.4236      9.5419      10.954    
  12.407      13.849      15.212      16.425      17.415      18.117      18.482      18.482      18.117      17.415    
  16.425      15.212      13.849      12.407      10.953      9.5419      8.2147      7.0015      5.9196      4.9759    
  4.1685      3.4894      2.9266      2.4662      2.0947      1.7995      1.5700      1.3972      1.2741      1.1951    
  1.1566      1.1566      1.1951      1.2741      1.3972      1.5700      1.7995      2.0947      2.4662      2.9266    
  3.4895      4.1685      4.9758      5.9196      7.0015      8.2147      10.663      12.193      13.749      15.266    
  16.670      17.877      18.808      19.396      19.598      19.396      18.808      17.877      16.670      15.266    
  13.749      12.193      10.663      9.2092      7.8675      6.6600      5.5971      4.6802      3.9034      3.2557    
  2.7235      2.2922      1.9478      1.6778      1.4714      1.3199      1.2166      1.1566      1.1369      1.1566    
  1.2166      1.3199      1.4714      1.6778      1.9478      2.2922      2.7235      3.2557      3.9034      4.6802    
  5.5971      6.6600      7.8675      9.2092      12.075      13.765      15.465      17.098      18.568      19.781    
  20.647      21.099      21.099      20.647      19.781      18.568      17.098      15.465      13.765      12.075    
  10.457      8.9551      7.5950      6.3899      5.3425      4.4482      3.6974      3.0769      2.5716      2.1662    
  1.8462      1.5990      1.4138      1.2821      1.1978      1.1566      1.1566      1.1978      1.2821      1.4138    
  1.5990      1.8462      2.1662      2.5716      3.0769      3.6974      4.4482      5.3425      6.3899      7.5951    
  8.9551      10.457      13.895      15.814      17.723      19.517      21.079      22.294      23.066      23.331    
  23.066      22.294      21.079      19.517      17.723      15.814      13.895      12.048      10.329      8.7709    
  7.3878      6.1815      5.1462      4.2714      3.5434      2.9470      2.4659      2.0841      1.7865      1.5603    
  1.3948      1.2821      1.2166      1.1951      1.2166      1.2821      1.3948      1.5603      1.7865      2.0841    
  2.4659      2.9470      3.5434      4.2714      5.1462      6.1815      7.3878      8.7709      10.329      12.048    
  16.303      18.539      20.719      22.707      24.427      25.760      26.500      26.500      25.760      24.428    
  22.707      20.719      18.539      16.303      14.129      12.101      10.267      8.6454      7.2354      6.0256    
  5.0006      4.1432      3.4362      2.8621      2.4036      2.0436      1.7668      1.5603      1.4138      1.3199    
  1.2741      1.2741      1.3199      1.4138      1.5603      1.7668      2.0436      2.4036      2.8621      3.4362    
  4.1432      5.0006      6.0256      7.2354      8.6454      10.267      12.101      14.129      19.508      22.208    
  25.233      28.497      31.517      33.670      34.452      33.670      31.517      28.497      25.233      22.208    
  19.508      16.903      14.443      12.214      10.255      8.5658      7.1279      5.9147      4.8997      4.0594    
  3.3728      2.8201      2.3829      2.0436      1.7865      1.5990      1.4714      1.3972      1.3729      1.3972    
  1.4714      1.5990      1.7865      2.0436      2.3829      2.8201      3.3728      4.0595      4.8997      5.9147    
  7.1279      8.5658      10.255      12.214      14.443      16.903      24.684      30.146      36.660      43.228    
  48.582      51.590      51.590      48.582      43.228      36.660      30.146      24.684      20.641      17.559    
  14.796      12.359      10.273      8.5192      7.0571      5.8433      4.8403      4.0180      3.3518      2.8201    
  2.4036      2.0841      1.8462      1.6778      1.5700      1.5174      1.5174      1.5700      1.6778      1.8462    
  2.0841      2.4036      2.8201      3.3518      4.0180      4.8403      5.8433      7.0571      8.5192      10.273    
  12.359      14.796      17.559      20.641      38.134      49.887      62.355      73.430      81.063      83.784    
  81.063      73.430      62.355      49.887      38.134      28.707      22.248      18.205      15.141      12.504    
  10.303      8.4948      7.0169      5.8083      4.8207      4.0180      3.3728      2.8621      2.4659      2.1662    
  1.9478      1.7995      1.7134      1.6852      1.7134      1.7995      1.9478      2.1662      2.4659      2.8621    
  3.3728      4.0180      4.8207      5.8083      7.0169      8.4948      10.303      12.504      15.141      18.205    
  22.248      28.707      67.598      88.439      108.16      123.56      132.00      132.00      123.56      108.16    
  88.439      67.598      48.721      34.028      24.334      18.842      15.428      12.619      10.327      8.4846    
  7.0039      5.8083      4.8403      4.0595      3.4362      2.9470      2.5716      2.2922      2.0947      1.9685    
  1.9070      1.9070      1.9685      2.0947      2.2922      2.5716      2.9470      3.4362      4.0595      4.8403    
  5.8083      7.0039      8.4847      10.327      12.619      15.428      18.842      24.334      34.028      48.721    
  119.06      150.29      176.91      194.80      201.10      194.80      176.91      150.29      119.06      87.746    
  60.404      39.726      26.487      19.415      15.619      12.683      10.337      8.4847      7.0169      5.8433    
  4.8997      4.1432      3.5434      3.0769      2.7235      2.4662      2.2917      2.1906      2.1575      2.1906    
  2.2917      2.4662      2.7235      3.0769      3.5434      4.1432      4.8997      5.8433      7.0169      8.4847    
  10.337      12.683      15.619      19.415      26.487      39.726      60.404      87.746      195.17      236.20    
  267.50      284.45      284.45      267.50      236.20      195.17      150.23      107.25      71.058      44.540    
  28.116      19.765      15.685      12.683      10.327      8.4948      7.0571      5.9147      5.0006      4.2714    
  3.6974      3.2557      2.9266      2.6940      2.5457      2.4736      2.4736      2.5457      2.6940      2.9266    
  3.2557      3.6974      4.2714      5.0006      5.9147      7.0571      8.4948      10.327      12.683      15.685    
  19.765      28.116      44.540      71.058      107.25      150.23      294.46      342.67      374.72      385.96    
  374.72      342.67      294.46      236.82      177.24      122.73      78.526      47.298      28.724      19.765    
  15.619      12.619      10.303      8.5192      7.1279      6.0256      5.1462      4.4482      3.9034      3.4895    
  3.1878      2.9834      2.8652      2.8265      2.8652      2.9834      3.1878      3.4895      3.9034      4.4482    
  5.1462      6.0256      7.1279      8.5192      10.303      12.619      15.619      19.765      28.724      47.298    
  78.526      122.73      177.24      236.82      411.09      462.01      489.46      489.46      462.01      411.09    
  343.81      268.99      195.60      131.29      81.211      47.298      28.116      19.415      15.428      12.504    
  10.273      8.5658      7.2354      6.1815      5.3425      4.6802      4.1685      3.7863      3.5160      3.3437    
  3.2601      3.2601      3.3438      3.5160      3.7863      4.1685      4.6802      5.3425      6.1815      7.2354    
  8.5658      10.273      12.504      15.428      19.415      28.116      47.298      81.211      131.29      195.60    
  268.99      343.81      535.24      582.90      599.60      582.90      535.24      463.37      376.92      286.54    
  202.11      131.29      78.526      44.540      26.487      18.842      15.141      12.359      10.255      8.6454    
  7.3878      6.3899      5.5971      4.9758      4.5020      4.1559      3.9212      3.7855      3.7411      3.7855    
  3.9212      4.1559      4.5020      4.9758      5.5971      6.3899      7.3878      8.6454      10.255      12.359    
  15.141      18.842      26.487      44.540      78.526      131.29      202.11      286.54      376.92      463.37    
  653.97      691.63      691.63      653.97      584.11      491.71      388.58      286.54      195.60      122.73    
  71.058      39.726      24.334      18.205      14.796      12.214      10.267      8.7709      7.5951      6.6600    
  5.9196      5.3448      4.9138      4.6083      4.4135      4.3189      4.3189      4.4135      4.6083      4.9138    
  5.3448      5.9196      6.6600      7.5951      8.7709      10.267      12.214      14.796      18.205      24.334    
  39.726      71.058      122.73      195.60      286.54      388.58      491.71      584.11      752.93      774.14    
  752.93      692.42      601.29      491.71      376.92      268.99      177.24      107.25      60.404      34.028    
  22.248      17.559      14.443      12.101      10.329      8.9551      7.8675      7.0015      6.3195      5.7968    
  5.4136      5.1532      5.0026      4.9534      5.0026      5.1532      5.4136      5.7968      6.3195      7.0015    
  7.8675      8.9551      10.329      12.101      14.443      17.559      22.248      34.028      60.404      107.25    
  177.24      268.99      376.92      491.71      601.29      692.42      818.74      818.74      774.46      692.42    
  584.11      463.37      343.81      236.82      150.23      87.746      48.721      28.707      20.641      16.903    
  14.129      12.048      10.457      9.2092      8.2147      7.4236      6.8061      6.3411      6.0104      5.7992    
  5.6966      5.6966      5.7993      6.0104      6.3410      6.8061      7.4236      8.2147      9.2092      10.457    
  12.048      14.129      16.903      20.641      28.707      48.721      87.746      150.23      236.82      343.81    
  463.37      584.11      692.42      774.46      818.74      774.14      691.63      582.90      462.01      342.67    
  236.20      150.29      88.439      49.887      30.146      22.208      18.539      15.814      13.765      12.193    
  10.953      9.9605      9.1665      8.5446      8.0754      7.7418      7.5290      7.4256      7.4256      7.5289    
  7.7418      8.0754      8.5446      9.1665      9.9605      10.954      12.193      13.765      15.814      18.539    
  22.208      30.146      49.887      88.439      150.29      236.20      342.67      462.01      582.90      691.63    
  774.14      818.74      774.14      711.25      616.84      503.83      386.07      275.94      182.75      111.85    
  64.415      37.635      25.631      20.945      17.903      15.613      13.874      12.518      11.435      10.565    
  9.8759      9.3460      8.9580      8.6954      8.5442      8.4949      8.5442      8.6954      8.9580      9.3460    
  9.8759      10.565      11.435      12.518      13.874      15.613      17.903      20.945      25.631      37.635    
  64.415      111.85      182.75      275.94      386.07      503.83      616.84      711.25      774.14      796.23    
  691.63      616.84      518.48      409.49      302.45      207.68      132.04      78.441      45.787      29.607    
  23.232      19.932      17.439      15.557      14.105      12.954      12.031      11.295      10.724      10.299    
  10.001      9.8138      9.7241      9.7241      9.8138      10.001      10.299      10.724      11.295      12.031    
  12.954      14.105      15.557      17.439      19.932      23.232      29.607      45.787      78.441      132.04    
  207.68      302.45      409.49      518.48      616.84      691.63      732.10      732.10      582.90      503.83    