   2   2   1   0
  0.2234237E+02  0.3983133E-09  0.3983133E-09  0.3983133E-09  0.5000000E-15
  1.000000000000000E-004
  CAR 
 unknown system                          
     58.82023044    -23.44172546  301      5.11002840      1.00000000
    -23.442  0.0000E+00  0.0000E+00  0.0000E+00  0.0000E+00
    -23.168  0.0000E+00  0.0000E+00  0.0000E+00  0.0000E+00
    -22.893  0.0000E+00  0.0000E+00  0.0000E+00  0.0000E+00
    -22.619  0.0000E+00  0.0000E+00  0.0000E+00  0.0000E+00
    -22.345  0.0000E+00  0.0000E+00  0.0000E+00  0.0000E+00
    -22.071  0.0000E+00  0.0000E+00  0.0000E+00  0.0000E+00
    -21.796  0.0000E+00  0.0000E+00  0.0000E+00  0.0000E+00
    -21.522  0.0000E+00  0.0000E+00  0.0000E+00  0.0000E+00
    -21.248  0.0000E+00  0.0000E+00  0.0000E+00  0.0000E+00
    -20.974  0.0000E+00  0.0000E+00  0.0000E+00  0.0000E+00
    -20.700  0.0000E+00  0.0000E+00  0.0000E+00  0.0000E+00
    -20.425  0.0000E+00  0.0000E+00  0.0000E+00  0.0000E+00
    -20.151  0.0000E+00  0.0000E+00  0.0000E+00  0.0000E+00
    -19.877  0.4400E-06  0.4398E-06  0.1207E-06  0.1206E-06
    -19.603  0.1016E+02  0.1016E+02  0.2786E+01  0.2786E+01
    -19.329  0.2365E+02  0.2365E+02  0.9273E+01  0.9273E+01
    -19.054  0.2652E+01  0.2653E+01  0.1000E+02  0.1000E+02
    -18.780  0.0000E+00  0.0000E+00  0.1000E+02  0.1000E+02
    -18.506  0.0000E+00  0.0000E+00  0.1000E+02  0.1000E+02
    -18.232  0.0000E+00  0.0000E+00  0.1000E+02  0.1000E+02
    -17.958  0.0000E+00  0.0000E+00  0.1000E+02  0.1000E+02
    -17.683  0.0000E+00  0.0000E+00  0.1000E+02  0.1000E+02
    -17.409  0.0000E+00  0.0000E+00  0.1000E+02  0.1000E+02
    -17.135  0.0000E+00  0.0000E+00  0.1000E+02  0.1000E+02
    -16.861  0.0000E+00  0.0000E+00  0.1000E+02  0.1000E+02
    -16.587  0.0000E+00  0.0000E+00  0.1000E+02  0.1000E+02
    -16.312  0.0000E+00  0.0000E+00  0.1000E+02  0.1000E+02
    -16.038  0.0000E+00  0.0000E+00  0.1000E+02  0.1000E+02
    -15.764  0.0000E+00  0.0000E+00  0.1000E+02  0.1000E+02
    -15.490  0.0000E+00  0.0000E+00  0.1000E+02  0.1000E+02
    -15.216  0.0000E+00  0.0000E+00  0.1000E+02  0.1000E+02
    -14.941  0.0000E+00  0.0000E+00  0.1000E+02  0.1000E+02
    -14.667  0.0000E+00  0.0000E+00  0.1000E+02  0.1000E+02
    -14.393  0.0000E+00  0.0000E+00  0.1000E+02  0.1000E+02
    -14.119  0.0000E+00  0.0000E+00  0.1000E+02  0.1000E+02
    -13.844  0.0000E+00  0.0000E+00  0.1000E+02  0.1000E+02
    -13.570  0.0000E+00  0.0000E+00  0.1000E+02  0.1000E+02
    -13.296  0.0000E+00  0.0000E+00  0.1000E+02  0.1000E+02
    -13.022  0.0000E+00  0.0000E+00  0.1000E+02  0.1000E+02
    -12.748  0.0000E+00  0.0000E+00  0.1000E+02  0.1000E+02
    -12.473  0.0000E+00  0.0000E+00  0.1000E+02  0.1000E+02
    -12.199  0.0000E+00  0.0000E+00  0.1000E+02  0.1000E+02
    -11.925  0.0000E+00  0.0000E+00  0.1000E+02  0.1000E+02
    -11.651  0.0000E+00  0.0000E+00  0.1000E+02  0.1000E+02
    -11.377  0.0000E+00  0.0000E+00  0.1000E+02  0.1000E+02
    -11.102  0.0000E+00  0.0000E+00  0.1000E+02  0.1000E+02
    -10.828  0.0000E+00  0.0000E+00  0.1000E+02  0.1000E+02
    -10.554  0.0000E+00  0.0000E+00  0.1000E+02  0.1000E+02
    -10.280  0.0000E+00  0.0000E+00  0.1000E+02  0.1000E+02
    -10.006  0.0000E+00  0.0000E+00  0.1000E+02  0.1000E+02
     -9.731  0.0000E+00  0.0000E+00  0.1000E+02  0.1000E+02
     -9.457  0.0000E+00  0.0000E+00  0.1000E+02  0.1000E+02
     -9.183  0.0000E+00  0.0000E+00  0.1000E+02  0.1000E+02
     -8.909  0.0000E+00  0.0000E+00  0.1000E+02  0.1000E+02
     -8.635  0.0000E+00  0.0000E+00  0.1000E+02  0.1000E+02
     -8.360  0.0000E+00  0.0000E+00  0.1000E+02  0.1000E+02
     -8.086  0.0000E+00  0.0000E+00  0.1000E+02  0.1000E+02
     -7.812  0.1341E-04  0.1342E-04  0.1000E+02  0.1000E+02
     -7.538  0.1687E-01  0.1687E-01  0.1000E+02  0.1000E+02
     -7.264  0.1721E+00  0.1721E+00  0.1005E+02  0.1005E+02
     -6.989  0.6431E-01  0.6431E-01  0.1007E+02  0.1007E+02
     -6.715  0.2024E+00  0.2024E+00  0.1012E+02  0.1012E+02
     -6.441  0.4410E+00  0.4410E+00  0.1025E+02  0.1025E+02
     -6.167  0.9954E-01  0.9954E-01  0.1027E+02  0.1027E+02
     -5.893  0.8735E-01  0.8735E-01  0.1030E+02  0.1030E+02
     -5.618  0.5155E+00  0.5155E+00  0.1044E+02  0.1044E+02
     -5.344  0.7791E+00  0.7791E+00  0.1065E+02  0.1065E+02
     -5.070  0.2561E-02  0.2561E-02  0.1065E+02  0.1065E+02
     -4.796  0.3978E+00  0.3978E+00  0.1076E+02  0.1076E+02
     -4.521  0.6153E+00  0.6153E+00  0.1093E+02  0.1093E+02
     -4.247  0.0000E+00  0.0000E+00  0.1093E+02  0.1093E+02
     -3.973  0.3339E-05  0.3339E-05  0.1093E+02  0.1093E+02
     -3.699  0.4814E+00  0.4814E+00  0.1106E+02  0.1106E+02
     -3.425  0.2514E-01  0.2513E-01  0.1107E+02  0.1107E+02
     -3.150  0.0000E+00  0.0000E+00  0.1107E+02  0.1107E+02
     -2.876  0.4757E-01  0.4757E-01  0.1108E+02  0.1108E+02
     -2.602  0.9755E+00  0.9755E+00  0.1135E+02  0.1135E+02
     -2.328  0.4597E+00  0.4597E+00  0.1148E+02  0.1148E+02
     -2.054  0.3038E-02  0.3038E-02  0.1148E+02  0.1148E+02
     -1.779  0.4290E+00  0.4290E+00  0.1159E+02  0.1159E+02
     -1.505  0.3814E+00  0.3814E+00  0.1170E+02  0.1170E+02
     -1.231  0.1067E-02  0.1067E-02  0.1170E+02  0.1170E+02
     -0.957  0.2353E+00  0.2353E+00  0.1176E+02  0.1176E+02
     -0.683  0.1192E-14  0.1192E-14  0.1176E+02  0.1176E+02
     -0.408  0.1944E+00  0.1944E+00  0.1182E+02  0.1182E+02
     -0.134  0.2108E+00  0.2108E+00  0.1188E+02  0.1188E+02
      0.140  0.9654E-06  0.9655E-06  0.1188E+02  0.1188E+02
      0.414  0.3955E+00  0.3955E+00  0.1198E+02  0.1198E+02
      0.688  0.2827E+00  0.2827E+00  0.1206E+02  0.1206E+02
      0.963  0.1342E+00  0.1342E+00  0.1210E+02  0.1210E+02
      1.237  0.1214E+01  0.1214E+01  0.1243E+02  0.1243E+02
      1.511  0.1831E+00  0.1832E+00  0.1248E+02  0.1248E+02
      1.785  0.7357E+00  0.7356E+00  0.1268E+02  0.1268E+02
      2.059  0.1015E+01  0.1015E+01  0.1296E+02  0.1296E+02
      2.334  0.5726E+00  0.5727E+00  0.1312E+02  0.1312E+02
      2.608  0.8543E+00  0.8543E+00  0.1335E+02  0.1335E+02
      2.882  0.6580E+00  0.6581E+00  0.1353E+02  0.1353E+02
      3.156  0.1684E+00  0.1684E+00  0.1358E+02  0.1358E+02
      3.431  0.5451E+00  0.5451E+00  0.1373E+02  0.1373E+02
      3.705  0.4674E+00  0.4674E+00  0.1386E+02  0.1386E+02
      3.979  0.1214E-02  0.1214E-02  0.1386E+02  0.1386E+02
      4.253  0.3295E+00  0.3295E+00  0.1395E+02  0.1395E+02
      4.527  0.1425E+00  0.1425E+00  0.1399E+02  0.1399E+02
      4.802  0.3776E-01  0.3776E-01  0.1400E+02  0.1400E+02
      5.076  0.1289E-01  0.1289E-01  0.1400E+02  0.1400E+02
      5.350  0.6392E-01  0.6391E-01  0.1402E+02  0.1402E+02
      5.624  0.1584E+00  0.1584E+00  0.1406E+02  0.1406E+02
      5.898  0.1994E+00  0.1994E+00  0.1412E+02  0.1412E+02
      6.173  0.5364E+00  0.5364E+00  0.1426E+02  0.1426E+02
      6.447  0.2973E-01  0.2973E-01  0.1427E+02  0.1427E+02
      6.721  0.7119E+00  0.7119E+00  0.1447E+02  0.1447E+02
      6.995  0.9596E+00  0.9596E+00  0.1473E+02  0.1473E+02
      7.269  0.1265E+00  0.1265E+00  0.1476E+02  0.1476E+02
      7.544  0.5050E-01  0.5050E-01  0.1478E+02  0.1478E+02
      7.818  0.1257E+01  0.1257E+01  0.1512E+02  0.1512E+02
      8.092  0.6109E+00  0.6109E+00  0.1529E+02  0.1529E+02
      8.366  0.9348E+00  0.9348E+00  0.1555E+02  0.1555E+02
      8.640  0.4772E+00  0.4773E+00  0.1568E+02  0.1568E+02
      8.915  0.1143E+01  0.1143E+01  0.1599E+02  0.1599E+02
      9.189  0.5306E+00  0.5306E+00  0.1614E+02  0.1614E+02
      9.463  0.1011E+01  0.1011E+01  0.1641E+02  0.1641E+02
      9.737  0.1161E-01  0.1161E-01  0.1642E+02  0.1642E+02
     10.011  0.7658E+00  0.7658E+00  0.1663E+02  0.1663E+02
     10.286  0.6472E+00  0.6471E+00  0.1680E+02  0.1680E+02
     10.560  0.5294E-02  0.5293E-02  0.1681E+02  0.1681E+02
     10.834  0.2014E+00  0.2014E+00  0.1686E+02  0.1686E+02
     11.108  0.6866E+00  0.6866E+00  0.1705E+02  0.1705E+02
     11.383  0.3911E+00  0.3911E+00  0.1716E+02  0.1716E+02
     11.657  0.9656E+00  0.9656E+00  0.1742E+02  0.1742E+02
     11.931  0.4156E+00  0.4156E+00  0.1754E+02  0.1754E+02
     12.205  0.1104E+01  0.1104E+01  0.1784E+02  0.1784E+02
     12.479  0.5013E+00  0.5014E+00  0.1798E+02  0.1798E+02
     12.754  0.5129E+00  0.5129E+00  0.1812E+02  0.1812E+02
     13.028  0.1957E+00  0.1957E+00  0.1817E+02  0.1817E+02
     13.302  0.4796E+00  0.4796E+00  0.1830E+02  0.1830E+02
     13.576  0.1135E+01  0.1135E+01  0.1861E+02  0.1861E+02
     13.850  0.1486E+00  0.1486E+00  0.1865E+02  0.1865E+02
     14.125  0.3419E+00  0.3420E+00  0.1875E+02  0.1875E+02
     14.399  0.1210E+01  0.1210E+01  0.1908E+02  0.1908E+02
     14.673  0.6602E+00  0.6602E+00  0.1926E+02  0.1926E+02
     14.947  0.4887E+00  0.4887E+00  0.1939E+02  0.1939E+02
     15.221  0.5675E+00  0.5675E+00  0.1955E+02  0.1955E+02
     15.496  0.7747E+00  0.7747E+00  0.1976E+02  0.1976E+02
     15.770  0.1108E+00  0.1108E+00  0.1979E+02  0.1979E+02
     16.044  0.2270E+00  0.2270E+00  0.1985E+02  0.1985E+02
     16.318  0.1280E+01  0.1280E+01  0.2020E+02  0.2020E+02
     16.592  0.4403E+00  0.4403E+00  0.2033E+02  0.2033E+02
     16.867  0.7372E+00  0.7372E+00  0.2053E+02  0.2053E+02
     17.141  0.2015E+01  0.2015E+01  0.2108E+02  0.2108E+02
     17.415  0.3542E+00  0.3542E+00  0.2118E+02  0.2118E+02
     17.689  0.7437E+00  0.7438E+00  0.2138E+02  0.2138E+02
     17.963  0.8052E+00  0.8052E+00  0.2160E+02  0.2160E+02
     18.238  0.9651E+00  0.9651E+00  0.2187E+02  0.2187E+02
     18.512  0.8228E+00  0.8228E+00  0.2209E+02  0.2209E+02
     18.786  0.2030E+00  0.2030E+00  0.2215E+02  0.2215E+02
     19.060  0.8489E+00  0.8489E+00  0.2238E+02  0.2238E+02
     19.334  0.6875E+00  0.6874E+00  0.2257E+02  0.2257E+02
     19.609  0.1845E-04  0.1846E-04  0.2257E+02  0.2257E+02
     19.883  0.1004E+01  0.1004E+01  0.2284E+02  0.2284E+02
     20.157  0.8893E-02  0.8890E-02  0.2285E+02  0.2285E+02
     20.431  0.1011E+00  0.1011E+00  0.2287E+02  0.2287E+02
     20.706  0.6797E-03  0.6799E-03  0.2288E+02  0.2288E+02
     20.980  0.5295E+00  0.5296E+00  0.2302E+02  0.2302E+02
     21.254  0.7625E+00  0.7625E+00  0.2323E+02  0.2323E+02
     21.528  0.2035E+01  0.2035E+01  0.2379E+02  0.2379E+02
     21.802  0.1726E+01  0.1726E+01  0.2426E+02  0.2426E+02
     22.077  0.9198E+00  0.9198E+00  0.2451E+02  0.2451E+02
     22.351  0.6799E+00  0.6799E+00  0.2470E+02  0.2470E+02
     22.625  0.7789E+00  0.7789E+00  0.2491E+02  0.2491E+02
     22.899  0.8386E+00  0.8386E+00  0.2514E+02  0.2514E+02
     23.173  0.3115E+00  0.3115E+00  0.2523E+02  0.2523E+02
     23.448  0.1436E+01  0.1436E+01  0.2562E+02  0.2562E+02
     23.722  0.4809E+00  0.4809E+00  0.2575E+02  0.2575E+02
     23.996  0.1180E+01  0.1180E+01  0.2608E+02  0.2608E+02
     24.270  0.1014E+01  0.1014E+01  0.2636E+02  0.2636E+02
     24.544  0.2416E+00  0.2415E+00  0.2642E+02  0.2642E+02
     24.819  0.5934E+00  0.5934E+00  0.2658E+02  0.2658E+02
     25.093  0.3171E+00  0.3171E+00  0.2667E+02  0.2667E+02
     25.367  0.1588E+00  0.1588E+00  0.2671E+02  0.2671E+02
     25.641  0.1281E+01  0.1281E+01  0.2707E+02  0.2707E+02
     25.915  0.4312E+00  0.4312E+00  0.2718E+02  0.2718E+02
     26.190  0.7979E+00  0.7979E+00  0.2740E+02  0.2740E+02
     26.464  0.7890E+00  0.7890E+00  0.2762E+02  0.2762E+02
     26.738  0.1068E+01  0.1068E+01  0.2791E+02  0.2791E+02
     27.012  0.1165E+01  0.1165E+01  0.2823E+02  0.2823E+02
     27.286  0.6382E+00  0.6382E+00  0.2841E+02  0.2841E+02
     27.561  0.1523E+01  0.1523E+01  0.2882E+02  0.2882E+02
     27.835  0.1203E+01  0.1203E+01  0.2915E+02  0.2915E+02
     28.109  0.2013E+01  0.2013E+01  0.2971E+02  0.2971E+02
     28.383  0.5918E+00  0.5918E+00  0.2987E+02  0.2987E+02
     28.658  0.1272E+01  0.1272E+01  0.3022E+02  0.3022E+02
     28.932  0.5673E+00  0.5673E+00  0.3037E+02  0.3037E+02
     29.206  0.6485E+00  0.6485E+00  0.3055E+02  0.3055E+02
     29.480  0.1227E+01  0.1227E+01  0.3089E+02  0.3089E+02
     29.754  0.4955E+00  0.4955E+00  0.3102E+02  0.3102E+02
     30.029  0.2656E+00  0.2656E+00  0.3110E+02  0.3110E+02
     30.303  0.5460E+00  0.5459E+00  0.3125E+02  0.3125E+02
     30.577  0.2874E+00  0.2874E+00  0.3132E+02  0.3132E+02
     30.851  0.1292E+01  0.1292E+01  0.3168E+02  0.3168E+02
     31.125  0.7745E+00  0.7745E+00  0.3189E+02  0.3189E+02
     31.400  0.1210E+01  0.1210E+01  0.3222E+02  0.3222E+02
     31.674  0.7490E+00  0.7490E+00  0.3243E+02  0.3243E+02
     31.948  0.5829E+00  0.5829E+00  0.3259E+02  0.3259E+02
     32.222  0.1071E+01  0.1071E+01  0.3288E+02  0.3288E+02
     32.496  0.4756E+00  0.4756E+00  0.3301E+02  0.3301E+02
     32.771  0.2152E+01  0.2152E+01  0.3360E+02  0.3360E+02
     33.045  0.2001E+01  0.2001E+01  0.3415E+02  0.3415E+02
     33.319  0.2696E+00  0.2696E+00  0.3422E+02  0.3422E+02
     33.593  0.2005E+01  0.2005E+01  0.3477E+02  0.3477E+02
     33.867  0.2073E+00  0.2073E+00  0.3483E+02  0.3483E+02
     34.142  0.4348E+00  0.4348E+00  0.3495E+02  0.3495E+02
     34.416  0.1301E+01  0.1301E+01  0.3531E+02  0.3531E+02
     34.690  0.1059E+01  0.1059E+01  0.3560E+02  0.3560E+02
     34.964  0.6019E+00  0.6020E+00  0.3576E+02  0.3576E+02
     35.238  0.1577E+01  0.1577E+01  0.3620E+02  0.3620E+02
     35.513  0.8262E+00  0.8263E+00  0.3642E+02  0.3642E+02
     35.787  0.7762E+00  0.7760E+00  0.3664E+02  0.3664E+02
     36.061  0.1045E+01  0.1045E+01  0.3692E+02  0.3692E+02
     36.335  0.7413E+00  0.7413E+00  0.3712E+02  0.3712E+02
     36.610  0.1099E+01  0.1099E+01  0.3743E+02  0.3743E+02
     36.884  0.1250E+00  0.1253E+00  0.3746E+02  0.3746E+02
     37.158  0.5768E+00  0.5768E+00  0.3762E+02  0.3762E+02
     37.432  0.4839E+00  0.4820E+00  0.3775E+02  0.3775E+02
     37.706  0.1105E+01  0.1098E+01  0.3805E+02  0.3805E+02
     37.981  0.2741E+00  0.2797E+00  0.3813E+02  0.3813E+02
     38.255  0.1562E+01  0.1566E+01  0.3856E+02  0.3856E+02
     38.529  0.9256E+00  0.9256E+00  0.3881E+02  0.3881E+02
     38.803  0.1209E+01  0.1211E+01  0.3914E+02  0.3914E+02
     39.077  0.2213E+01  0.2211E+01  0.3975E+02  0.3975E+02
     39.352  0.1817E+01  0.1816E+01  0.4025E+02  0.4025E+02
     39.626  0.1313E+01  0.1310E+01  0.4061E+02  0.4061E+02
     39.900  0.8772E+00  0.8670E+00  0.4085E+02  0.4084E+02
     40.174  0.1370E+01  0.1383E+01  0.4122E+02  0.4122E+02
     40.448  0.9856E+00  0.9811E+00  0.4149E+02  0.4149E+02
     40.723  0.1215E+01  0.1220E+01  0.4183E+02  0.4183E+02
     40.997  0.5428E+00  0.5429E+00  0.4198E+02  0.4198E+02
     41.271  0.3965E+00  0.3980E+00  0.4209E+02  0.4209E+02
     41.545  0.8624E+00  0.8310E+00  0.4232E+02  0.4231E+02
     41.819  0.1785E+01  0.1794E+01  0.4281E+02  0.4281E+02
     42.094  0.1809E+01  0.1829E+01  0.4331E+02  0.4331E+02
     42.368  0.1019E+01  0.9889E+00  0.4359E+02  0.4358E+02
     42.642  0.4778E+00  0.4285E+00  0.4372E+02  0.4370E+02
     42.916  0.1508E+01  0.1566E+01  0.4413E+02  0.4412E+02
     43.190  0.5397E+00  0.5593E+00  0.4428E+02  0.4428E+02
     43.465  0.5399E+00  0.5430E+00  0.4443E+02  0.4443E+02
     43.739  0.2466E+00  0.1557E+00  0.4449E+02  0.4447E+02
     44.013  0.5229E-01  0.1505E+00  0.4451E+02  0.4451E+02
     44.287  0.1474E+01  0.1467E+01  0.4491E+02  0.4491E+02
     44.561  0.5643E+00  0.5481E+00  0.4507E+02  0.4506E+02
     44.836  0.5535E+00  0.7528E+00  0.4522E+02  0.4527E+02
     45.110  0.2856E+01  0.2594E+01  0.4600E+02  0.4598E+02
     45.384  0.1541E+01  0.1657E+01  0.4643E+02  0.4644E+02
     45.658  0.6290E+00  0.6093E+00  0.4660E+02  0.4660E+02
     45.933  0.1219E+01  0.1292E+01  0.4693E+02  0.4696E+02
     46.207  0.1253E+01  0.1133E+01  0.4728E+02  0.4727E+02
     46.481  0.8576E+00  0.1337E+01  0.4751E+02  0.4763E+02
     46.755  0.1098E+01  0.7286E+00  0.4781E+02  0.4783E+02
     47.029  0.1124E+01  0.1225E+01  0.4812E+02  0.4817E+02
     47.304  0.1741E+01  0.1118E+01  0.4860E+02  0.4848E+02
     47.578  0.9122E+00  0.1653E+01  0.4885E+02  0.4893E+02
     47.852  0.1299E+01  0.1486E+01  0.4920E+02  0.4934E+02
     48.126  0.8517E+00  0.3895E+00  0.4944E+02  0.4944E+02
     48.400  0.1048E+01  0.7632E+00  0.4972E+02  0.4965E+02
     48.675  0.9126E+00  0.1682E+01  0.4998E+02  0.5011E+02
     48.949  0.1904E+01  0.1495E+01  0.5050E+02  0.5052E+02
     49.223  0.8537E+00  0.1192E+01  0.5073E+02  0.5085E+02
     49.497  0.4334E+00  0.4056E+00  0.5085E+02  0.5096E+02
     49.771  0.9509E+00  0.4206E+00  0.5111E+02  0.5108E+02
     50.046  0.2874E+00  0.7131E+00  0.5119E+02  0.5127E+02
     50.320  0.7088E+00  0.4870E+00  0.5138E+02  0.5141E+02
     50.594  0.4902E+00  0.1657E+00  0.5152E+02  0.5145E+02
     50.868  0.6294E+00  0.7187E+00  0.5169E+02  0.5165E+02
     51.142  0.4526E+00  0.6104E+00  0.5182E+02  0.5182E+02
     51.417  0.7751E+00  0.7805E+00  0.5203E+02  0.5203E+02
     51.691  0.6063E+00  0.9708E+00  0.5219E+02  0.5230E+02
     51.965  0.1221E+01  0.9857E+00  0.5253E+02  0.5257E+02
     52.239  0.2866E+00  0.2607E+00  0.5261E+02  0.5264E+02
     52.513  0.1087E+01  0.4711E+00  0.5291E+02  0.5277E+02
     52.788  0.1590E+00  0.1070E+00  0.5295E+02  0.5280E+02
     53.062  0.9256E+00  0.5698E+00  0.5320E+02  0.5295E+02
     53.336  0.1049E+01  0.1902E+01  0.5349E+02  0.5348E+02
     53.610  0.3355E-01  0.7136E+00  0.5350E+02  0.5367E+02
     53.885  0.5284E+00  0.1002E-02  0.5364E+02  0.5367E+02
     54.159  0.8776E+00  0.2552E+00  0.5389E+02  0.5374E+02
     54.433  0.3523E+00  0.8257E+00  0.5398E+02  0.5397E+02
     54.707  0.6574E-01  0.4956E-01  0.5400E+02  0.5398E+02
     54.981  0.0000E+00  0.1620E-03  0.5400E+02  0.5398E+02
     55.256  0.0000E+00  0.6737E-01  0.5400E+02  0.5400E+02
     55.530  0.0000E+00  0.0000E+00  0.5400E+02  0.5400E+02
     55.804  0.0000E+00  0.0000E+00  0.5400E+02  0.5400E+02
     56.078  0.0000E+00  0.0000E+00  0.5400E+02  0.5400E+02
     56.352  0.0000E+00  0.0000E+00  0.5400E+02  0.5400E+02
     56.627  0.0000E+00  0.0000E+00  0.5400E+02  0.5400E+02
     56.901  0.0000E+00  0.0000E+00  0.5400E+02  0.5400E+02
     57.175  0.0000E+00  0.0000E+00  0.5400E+02  0.5400E+02
     57.449  0.0000E+00  0.0000E+00  0.5400E+02  0.5400E+02
     57.723  0.0000E+00  0.0000E+00  0.5400E+02  0.5400E+02
     57.998  0.0000E+00  0.0000E+00  0.5400E+02  0.5400E+02
     58.272  0.0000E+00  0.0000E+00  0.5400E+02  0.5400E+02
     58.546  0.0000E+00  0.0000E+00  0.5400E+02  0.5400E+02
     58.820  0.0000E+00  0.0000E+00  0.5400E+02  0.5400E+02
     58.82023044    -23.44172546  301      5.11002840      1.00000000
    -23.442  0.0000E+00  0.0000E+00  0.0000E+00  0.0000E+00  0.0000E+00  0.0000E+00  0.0000E+00  0.0000E+00  0.0000E+00  0.0000E+00  0.0000E+00  0.0000E+00  0.0000E+00  0.0000E+00  0.0000E+00  0.0000E+00  0.0000E+00  0.0000E+00
    -23.168  0.0000E+00  0.0000E+00  0.0000E+00  0.0000E+00  0.0000E+00  0.0000E+00  0.0000E+00  0.0000E+00  0.0000E+00  0.0000E+00  0.0000E+00  0.0000E+00  0.0000E+00  0.0000E+00  0.0000E+00  0.0000E+00  0.0000E+00  0.0000E+00
    -22.893  0.0000E+00  0.0000E+00  0.0000E+00  0.0000E+00  0.0000E+00  0.0000E+00  0.0000E+00  0.0000E+00  0.0000E+00  0.0000E+00  0.0000E+00  0.0000E+00  0.0000E+00  0.0000E+00  0.0000E+00  0.0000E+00  0.0000E+00  0.0000E+00
    -22.619  0.0000E+00  0.0000E+00  0.0000E+00  0.0000E+00  0.0000E+00  0.0000E+00  0.0000E+00  0.0000E+00  0.0000E+00  0.0000E+00  0.0000E+00  0.0000E+00  0.0000E+00  0.0000E+00  0.0000E+00  0.0000E+00  0.0000E+00  0.0000E+00
    -22.345  0.0000E+00  0.0000E+00  0.0000E+00  0.0000E+00  0.0000E+00  0.0000E+00  0.0000E+00  0.0000E+00  0.0000E+00  0.0000E+00  0.0000E+00  0.0000E+00  0.0000E+00  0.0000E+00  0.0000E+00  0.0000E+00  0.0000E+00  0.0000E+00
    -22.071  0.0000E+00  0.0000E+00  0.0000E+00  0.0000E+00  0.0000E+00  0.0000E+00  0.0000E+00  0.0000E+00  0.0000E+00  0.0000E+00  0.0000E+00  0.0000E+00  0.0000E+00  0.0000E+00  0.0000E+00  0.0000E+00  0.0000E+00  0.0000E+00
    -21.796  0.0000E+00  0.0000E+00  0.0000E+00  0.0000E+00  0.0000E+00  0.0000E+00  0.0000E+00  0.0000E+00  0.0000E+00  0.0000E+00  0.0000E+00  0.0000E+00  0.0000E+00  0.0000E+00  0.0000E+00  0.0000E+00  0.0000E+00  0.0000E+00
    -21.522  0.0000E+00  0.0000E+00  0.0000E+00  0.0000E+00  0.0000E+00  0.0000E+00  0.0000E+00  0.0000E+00  0.0000E+00  0.0000E+00  0.0000E+00  0.0000E+00  0.0000E+00  0.0000E+00  0.0000E+00  0.0000E+00  0.0000E+00  0.0000E+00
    -21.248  0.0000E+00  0.0000E+00  0.0000E+00  0.0000E+00  0.0000E+00  0.0000E+00  0.0000E+00  0.0000E+00  0.0000E+00  0.0000E+00  0.0000E+00  0.0000E+00  0.0000E+00  0.0000E+00  0.0000E+00  0.0000E+00  0.0000E+00  0.0000E+00
    -20.974  0.0000E+00  0.0000E+00  0.0000E+00  0.0000E+00  0.0000E+00  0.0000E+00  0.0000E+00  0.0000E+00  0.0000E+00  0.0000E+00  0.0000E+00  0.0000E+00  0.0000E+00  0.0000E+00  0.0000E+00  0.0000E+00  0.0000E+00  0.0000E+00
    -20.700  0.0000E+00  0.0000E+00  0.0000E+00  0.0000E+00  0.0000E+00  0.0000E+00  0.0000E+00  0.0000E+00  0.0000E+00  0.0000E+00  0.0000E+00  0.0000E+00  0.0000E+00  0.0000E+00  0.0000E+00  0.0000E+00  0.0000E+00  0.0000E+00
    -20.425  0.0000E+00  0.0000E+00  0.0000E+00  0.0000E+00  0.0000E+00  0.0000E+00  0.0000E+00  0.0000E+00  0.0000E+00  0.0000E+00  0.0000E+00  0.0000E+00  0.0000E+00  0.0000E+00  0.0000E+00  0.0000E+00  0.0000E+00  0.0000E+00
    -20.151  0.0000E+00  0.0000E+00  0.0000E+00  0.0000E+00  0.0000E+00  0.0000E+00  0.0000E+00  0.0000E+00  0.0000E+00  0.0000E+00  0.0000E+00  0.0000E+00  0.0000E+00  0.0000E+00  0.0000E+00  0.0000E+00  0.0000E+00  0.0000E+00
    -19.877  0.8449E-12  0.8396E-12  0.4629E-10  0.4627E-10  0.3075E-10  0.3074E-10  0.4026E-10  0.4025E-10  0.5882E-07  0.5878E-07  0.7069E-07  0.7065E-07  0.9268E-08  0.9262E-08  0.7722E-07  0.7717E-07  0.2363E-08  0.2361E-08
    -19.603  0.9035E-03  0.9029E-03  0.1170E-02  0.1170E-02  0.6320E-03  0.6322E-03  0.1056E-02  0.1057E-02  0.1234E+01  0.1234E+01  0.1513E+01  0.1513E+01  0.4393E+00  0.4393E+00  0.1582E+01  0.1582E+01  0.2741E+00  0.2740E+00
    -19.329  0.3490E-02  0.3489E-02  0.7806E-03  0.7806E-03  0.1058E-02  0.1058E-02  0.8499E-03  0.8498E-03  0.2125E+01  0.2125E+01  0.1681E+01  0.1681E+01  0.3096E+01  0.3096E+01  0.1566E+01  0.1566E+01  0.3300E+01  0.3300E+01
    -19.054  0.2004E-04  0.2004E-04  0.1829E-03  0.1829E-03  0.8323E-04  0.8322E-04  0.1595E-03  0.1595E-03  0.2646E+00  0.2647E+00  0.4325E+00  0.4326E+00  0.9220E-01  0.9222E-01  0.4787E+00  0.4788E+00  0.5463E-01  0.5464E-01
    -18.780  0.0000E+00  0.0000E+00  0.0000E+00  0.0000E+00  0.0000E+00  0.0000E+00  0.0000E+00  0.0000E+00  0.0000E+00  0.0000E+00  0.0000E+00  0.0000E+00  0.0000E+00  0.0000E+00  0.0000E+00  0.0000E+00  0.0000E+00  0.0000E+00
    -18.506  0.0000E+00  0.0000E+00  0.0000E+00  0.0000E+00  0.0000E+00  0.0000E+00  0.0000E+00  0.0000E+00  0.0000E+00  0.0000E+00  0.0000E+00  0.0000E+00  0.0000E+00  0.0000E+00  0.0000E+00  0.0000E+00  0.0000E+00  0.0000E+00
    -18.232  0.0000E+00  0.0000E+00  0.0000E+00  0.0000E+00  0.0000E+00  0.0000E+00  0.0000E+00  0.0000E+00  0.0000E+00  0.0000E+00  0.0000E+00  0.0000E+00  0.0000E+00  0.0000E+00  0.0000E+00  0.0000E+00  0.0000E+00  0.0000E+00
    -17.958  0.0000E+00  0.0000E+00  0.0000E+00  0.0000E+00  0.0000E+00  0.0000E+00  0.0000E+00  0.0000E+00  0.0000E+00  0.0000E+00  0.0000E+00  0.0000E+00  0.0000E+00  0.0000E+00  0.0000E+00  0.0000E+00  0.0000E+00  0.0000E+00
    -17.683  0.0000E+00  0.0000E+00  0.0000E+00  0.0000E+00  0.0000E+00  0.0000E+00  0.0000E+00  0.0000E+00  0.0000E+00  0.0000E+00  0.0000E+00  0.0000E+00  0.0000E+00  0.0000E+00  0.0000E+00  0.0000E+00  0.0000E+00  0.0000E+00
    -17.409  0.0000E+00  0.0000E+00  0.0000E+00  0.0000E+00  0.0000E+00  0.0000E+00  0.0000E+00  0.0000E+00  0.0000E+00  0.0000E+00  0.0000E+00  0.0000E+00  0.0000E+00  0.0000E+00  0.0000E+00  0.0000E+00  0.0000E+00  0.0000E+00
    -17.135  0.0000E+00  0.0000E+00  0.0000E+00  0.0000E+00  0.0000E+00  0.0000E+00  0.0000E+00  0.0000E+00  0.0000E+00  0.0000E+00  0.0000E+00  0.0000E+00  0.0000E+00  0.0000E+00  0.0000E+00  0.0000E+00  0.0000E+00  0.0000E+00
    -16.861  0.0000E+00  0.0000E+00  0.0000E+00  0.0000E+00  0.0000E+00  0.0000E+00  0.0000E+00  0.0000E+00  0.0000E+00  0.0000E+00  0.0000E+00  0.0000E+00  0.0000E+00  0.0000E+00  0.0000E+00  0.0000E+00  0.0000E+00  0.0000E+00
    -16.587  0.0000E+00  0.0000E+00  0.0000E+00  0.0000E+00  0.0000E+00  0.0000E+00  0.0000E+00  0.0000E+00  0.0000E+00  0.0000E+00  0.0000E+00  0.0000E+00  0.0000E+00  0.0000E+00  0.0000E+00  0.0000E+00  0.0000E+00  0.0000E+00
    -16.312  0.0000E+00  0.0000E+00  0.0000E+00  0.0000E+00  0.0000E+00  0.0000E+00  0.0000E+00  0.0000E+00  0.0000E+00  0.0000E+00  0.0000E+00  0.0000E+00  0.0000E+00  0.0000E+00  0.0000E+00  0.0000E+00  0.0000E+00  0.0000E+00
    -16.038  0.0000E+00  0.0000E+00  0.0000E+00  0.0000E+00  0.0000E+00  0.0000E+00  0.0000E+00  0.0000E+00  0.0000E+00  0.0000E+00  0.0000E+00  0.0000E+00  0.0000E+00  0.0000E+00  0.0000E+00  0.0000E+00  0.0000E+00  0.0000E+00
    -15.764  0.0000E+00  0.0000E+00  0.0000E+00  0.0000E+00  0.0000E+00  0.0000E+00  0.0000E+00  0.0000E+00  0.0000E+00  0.0000E+00  0.0000E+00  0.0000E+00  0.0000E+00  0.0000E+00  0.0000E+00  0.0000E+00  0.0000E+00  0.0000E+00
    -15.490  0.0000E+00  0.0000E+00  0.0000E+00  0.0000E+00  0.0000E+00  0.0000E+00  0.0000E+00  0.0000E+00  0.0000E+00  0.0000E+00  0.0000E+00  0.0000E+00  0.0000E+00  0.0000E+00  0.0000E+00  0.0000E+00  0.0000E+00  0.0000E+00
    -15.216  0.0000E+00  0.0000E+00  0.0000E+00  0.0000E+00  0.0000E+00  0.0000E+00  0.0000E+00  0.0000E+00  0.0000E+00  0.0000E+00  0.0000E+00  0.0000E+00  0.0000E+00  0.0000E+00  0.0000E+00  0.0000E+00  0.0000E+00  0.0000E+00
    -14.941  0.0000E+00  0.0000E+00  0.0000E+00  0.0000E+00  0.0000E+00  0.0000E+00  0.0000E+00  0.0000E+00  0.0000E+00  0.0000E+00  0.0000E+00  0.0000E+00  0.0000E+00  0.0000E+00  0.0000E+00  0.0000E+00  0.0000E+00  0.0000E+00
    -14.667  0.0000E+00  0.0000E+00  0.0000E+00  0.0000E+00  0.0000E+00  0.0000E+00  0.0000E+00  0.0000E+00  0.0000E+00  0.0000E+00  0.0000E+00  0.0000E+00  0.0000E+00  0.0000E+00  0.0000E+00  0.0000E+00  0.0000E+00  0.0000E+00
    -14.393  0.0000E+00  0.0000E+00  0.0000E+00  0.0000E+00  0.0000E+00  0.0000E+00  0.0000E+00  0.0000E+00  0.0000E+00  0.0000E+00  0.0000E+00  0.0000E+00  0.0000E+00  0.0000E+00  0.0000E+00  0.0000E+00  0.0000E+00  0.0000E+00
    -14.119  0.0000E+00  0.0000E+00  0.0000E+00  0.0000E+00  0.0000E+00  0.0000E+00  0.0000E+00  0.0000E+00  0.0000E+00  0.0000E+00  0.0000E+00  0.0000E+00  0.0000E+00  0.0000E+00  0.0000E+00  0.0000E+00  0.0000E+00  0.0000E+00
    -13.844  0.0000E+00  0.0000E+00  0.0000E+00  0.0000E+00  0.0000E+00  0.0000E+00  0.0000E+00  0.0000E+00  0.0000E+00  0.0000E+00  0.0000E+00  0.0000E+00  0.0000E+00  0.0000E+00  0.0000E+00  0.0000E+00  0.0000E+00  0.0000E+00
    -13.570  0.0000E+00  0.0000E+00  0.0000E+00  0.0000E+00  0.0000E+00  0.0000E+00  0.0000E+00  0.0000E+00  0.0000E+00  0.0000E+00  0.0000E+00  0.0000E+00  0.0000E+00  0.0000E+00  0.0000E+00  0.0000E+00  0.0000E+00  0.0000E+00
    -13.296  0.0000E+00  0.0000E+00  0.0000E+00  0.0000E+00  0.0000E+00  0.0000E+00  0.0000E+00  0.0000E+00  0.0000E+00  0.0000E+00  0.0000E+00  0.0000E+00  0.0000E+00  0.0000E+00  0.0000E+00  0.0000E+00  0.0000E+00  0.0000E+00
    -13.022  0.0000E+00  0.0000E+00  0.0000E+00  0.0000E+00  0.0000E+00  0.0000E+00  0.0000E+00  0.0000E+00  0.0000E+00  0.0000E+00  0.0000E+00  0.0000E+00  0.0000E+00  0.0000E+00  0.0000E+00  0.0000E+00  0.0000E+00  0.0000E+00
    -12.748  0.0000E+00  0.0000E+00  0.0000E+00  0.0000E+00  0.0000E+00  0.0000E+00  0.0000E+00  0.0000E+00  0.0000E+00  0.0000E+00  0.0000E+00  0.0000E+00  0.0000E+00  0.0000E+00  0.0000E+00  0.0000E+00  0.0000E+00  0.0000E+00
    -12.473  0.0000E+00  0.0000E+00  0.0000E+00  0.0000E+00  0.0000E+00  0.0000E+00  0.0000E+00  0.0000E+00  0.0000E+00  0.0000E+00  0.0000E+00  0.0000E+00  0.0000E+00  0.0000E+00  0.0000E+00  0.0000E+00  0.0000E+00  0.0000E+00
    -12.199  0.0000E+00  0.0000E+00  0.0000E+00  0.0000E+00  0.0000E+00  0.0000E+00  0.0000E+00  0.0000E+00  0.0000E+00  0.0000E+00  0.0000E+00  0.0000E+00  0.0000E+00  0.0000E+00  0.0000E+00  0.0000E+00  0.0000E+00  0.0000E+00
    -11.925  0.0000E+00  0.0000E+00  0.0000E+00  0.0000E+00  0.0000E+00  0.0000E+00  0.0000E+00  0.0000E+00  0.0000E+00  0.0000E+00  0.0000E+00  0.0000E+00  0.0000E+00  0.0000E+00  0.0000E+00  0.0000E+00  0.0000E+00  0.0000E+00
    -11.651  0.0000E+00  0.0000E+00  0.0000E+00  0.0000E+00  0.0000E+00  0.0000E+00  0.0000E+00  0.0000E+00  0.0000E+00  0.0000E+00  0.0000E+00  0.0000E+00  0.0000E+00  0.0000E+00  0.0000E+00  0.0000E+00  0.0000E+00  0.0000E+00
    -11.377  0.0000E+00  0.0000E+00  0.0000E+00  0.0000E+00  0.0000E+00  0.0000E+00  0.0000E+00  0.0000E+00  0.0000E+00  0.0000E+00  0.0000E+00  0.0000E+00  0.0000E+00  0.0000E+00  0.0000E+00  0.0000E+00  0.0000E+00  0.0000E+00
    -11.102  0.0000E+00  0.0000E+00  0.0000E+00  0.0000E+00  0.0000E+00  0.0000E+00  0.0000E+00  0.0000E+00  0.0000E+00  0.0000E+00  0.0000E+00  0.0000E+00  0.0000E+00  0.0000E+00  0.0000E+00  0.0000E+00  0.0000E+00  0.0000E+00
    -10.828  0.0000E+00  0.0000E+00  0.0000E+00  0.0000E+00  0.0000E+00  0.0000E+00  0.0000E+00  0.0000E+00  0.0000E+00  0.0000E+00  0.0000E+00  0.0000E+00  0.0000E+00  0.0000E+00  0.0000E+00  0.0000E+00  0.0000E+00  0.0000E+00
    -10.554  0.0000E+00  0.0000E+00  0.0000E+00  0.0000E+00  0.0000E+00  0.0000E+00  0.0000E+00  0.0000E+00  0.0000E+00  0.0000E+00  0.0000E+00  0.0000E+00  0.0000E+00  0.0000E+00  0.0000E+00  0.0000E+00  0.0000E+00  0.0000E+00
    -10.280  0.0000E+00  0.0000E+00  0.0000E+00  0.0000E+00  0.0000E+00  0.0000E+00  0.0000E+00  0.0000E+00  0.0000E+00  0.0000E+00  0.0000E+00  0.0000E+00  0.0000E+00  0.0000E+00  0.0000E+00  0.0000E+00  0.0000E+00  0.0000E+00
    -10.006  0.0000E+00  0.0000E+00  0.0000E+00  0.0000E+00  0.0000E+00  0.0000E+00  0.0000E+00  0.0000E+00  0.0000E+00  0.0000E+00  0.0000E+00  0.0000E+00  0.0000E+00  0.0000E+00  0.0000E+00  0.0000E+00  0.0000E+00  0.0000E+00
     -9.731  0.0000E+00  0.0000E+00  0.0000E+00  0.0000E+00  0.0000E+00  0.0000E+00  0.0000E+00  0.0000E+00  0.0000E+00  0.0000E+00  0.0000E+00  0.0000E+00  0.0000E+00  0.0000E+00  0.0000E+00  0.0000E+00  0.0000E+00  0.0000E+00