    2    2    1    2
  0.2234237E+02  0.3983132E-09  0.3983132E-09  0.3983132E-09  0.5000000E-15
  1.000000000000000E-004
  CAR 
 unknown system                          
     28     16     54
 
  0.0000000E+00  0.0000000E+00  0.0000000E+00  0.4629630E-02
    1      -19.649169    -19.649165   1.000000   1.000000
    2      -19.649167    -19.649163   1.000000   1.000000
    3      -19.649167    -19.649163   1.000000   1.000000
    4      -19.613136    -19.613132   1.000000   1.000000
    5      -19.613136    -19.613132   1.000000   1.000000
    6      -19.394727    -19.394723   1.000000   1.000000
    7      -19.394725    -19.394721   1.000000   1.000000
    8      -19.394725    -19.394721   1.000000   1.000000
    9      -19.380463    -19.380459   1.000000   1.000000
   10      -19.380463    -19.380459   1.000000   1.000000
   11       -7.700305     -7.700306   1.000000   1.000000
   12        4.778194      4.778187   1.000000   1.000000
   13        4.778203      4.778196   1.000000   1.000000
   14        4.778203      4.778196   1.000000   1.000000
   15        5.336178      5.336188   0.000000   0.000000
   16        7.446771      7.446766   0.000000   0.000000
   17        7.446771      7.446770   0.000000   0.000000
   18        7.446773      7.446770   0.000000   0.000000
   19       11.627756     11.627757   0.000000   0.000000
   20       14.673066     14.673059   0.000000   0.000000
   21       14.673066     14.673059   0.000000   0.000000
   22       15.941195     15.941192   0.000000   0.000000
   23       15.941208     15.941205   0.000000   0.000000
   24       15.941209     15.941205   0.000000   0.000000
   25       19.057641     19.057641   0.000000   0.000000
   26       30.373780     30.373777   0.000000   0.000000
   27       30.373780     30.373785   0.000000   0.000000
   28       30.373788     30.373788   0.000000   0.000000
   29       31.296828     31.296812   0.000000   0.000000
   30       31.296849     31.296836   0.000000   0.000000
   31       31.296857     31.296839   0.000000   0.000000
   32       31.863761     31.863765   0.000000   0.000000
   33       31.863764     31.863766   0.000000   0.000000
   34       31.863766     31.863773   0.000000   0.000000
   35       32.895495     32.895476   0.000000   0.000000
   36       32.895529     32.895487   0.000000   0.000000
   37       39.923173     39.913287   0.000000   0.000000
   38       44.310833     44.222509   0.000000   0.000000
   39       44.787260     44.737995   0.000000   0.000000
   40       44.882234     44.801819   0.000000   0.000000
   41       45.024224     44.902243   0.000000   0.000000
   42       45.099571     45.146235   0.000000   0.000000
   43       45.380982     45.271441   0.000000   0.000000
   44       45.729218     45.406103   0.000000   0.000000
   45       46.133154     46.062743   0.000000   0.000000
   46       46.245177     46.113338   0.000000   0.000000
   47       46.376198     46.310257   0.000000   0.000000
   48       46.546046     46.539700   0.000000   0.000000
   49       46.659130     46.605859   0.000000   0.000000
   50       46.842039     46.640474   0.000000   0.000000
   51       47.101208     47.106455   0.000000   0.000000
   52       47.488122     47.369607   0.000000   0.000000
   53       47.658828     47.631501   0.000000   0.000000
   54       47.845555     47.738807   0.000000   0.000000
 
  0.1666667E+00  0.0000000E+00  0.0000000E+00  0.3703704E-01
    1      -19.661647    -19.661643   1.000000   1.000000
    2      -19.661645    -19.661641   1.000000   1.000000
    3      -19.644835    -19.644831   1.000000   1.000000
    4      -19.594956    -19.594952   1.000000   1.000000
    5      -19.594956    -19.594951   1.000000   1.000000
    6      -19.412249    -19.412245   1.000000   1.000000
    7      -19.412249    -19.412244   1.000000   1.000000
    8      -19.399776    -19.399772   1.000000   1.000000
    9      -19.365983    -19.365978   1.000000   1.000000
   10      -19.365981    -19.365977   1.000000   1.000000
   11       -7.366008     -7.366010   1.000000   1.000000
   12        1.811934      1.811933   1.000000   1.000000
   13        4.255570      4.255564   1.000000   1.000000
   14        4.255574      4.255567   1.000000   1.000000
   15        6.051235      6.051239   0.000000   0.000000
   16        8.141624      8.141620   0.000000   0.000000
   17        8.141636      8.141634   0.000000   0.000000
   18        9.137276      9.137276   0.000000   0.000000
   19       12.949191     12.949192   0.000000   0.000000
   20       13.519539     13.519533   0.000000   0.000000
   21       13.519539     13.519533   0.000000   0.000000
   22       15.159810     15.159808   0.000000   0.000000
   23       18.419941     18.419934   0.000000   0.000000
   24       18.419943     18.419941   0.000000   0.000000
   25       21.307753     21.307753   0.000000   0.000000
   26       25.972659     25.972653   0.000000   0.000000
   27       25.972660     25.972654   0.000000   0.000000
   28       26.117276     26.117276   0.000000   0.000000
   29       31.016644     31.016649   0.000000   0.000000
   30       31.016658     31.016649   0.000000   0.000000
   31       31.579116     31.579097   0.000000   0.000000
   32       32.652361     32.652358   0.000000   0.000000
   33       32.652367     32.652377   0.000000   0.000000
   34       35.045651     35.045562   0.000000   0.000000
   35       38.116300     38.114919   0.000000   0.000000
   36       38.121232     38.121121   0.000000   0.000000
   37       38.123356     38.125056   0.000000   0.000000
   38       39.182013     39.181169   0.000000   0.000000
   39       39.182295     39.184469   0.000000   0.000000
   40       41.669038     41.656011   0.000000   0.000000
   41       41.868074     41.867227   0.000000   0.000000
   42       41.902529     41.879627   0.000000   0.000000
   43       42.579905     42.584440   0.000000   0.000000
   44       42.597759     42.643011   0.000000   0.000000
   45       42.651273     42.676626   0.000000   0.000000
   46       42.740823     42.790336   0.000000   0.000000
   47       44.927693     44.896428   0.000000   0.000000
   48       45.829321     45.871689   0.000000   0.000000
   49       45.946703     45.966448   0.000000   0.000000
   50       46.131473     46.254761   0.000000   0.000000
   51       47.984691     47.546077   0.000000   0.000000
   52       48.199268     48.023752   0.000000   0.000000
   53       49.881920     48.751399   0.000000   0.000000
   54       50.820779     50.782721   0.000000   0.000000
 
  0.3333333E+00  0.0000000E+00  0.0000000E+00  0.3703704E-01
    1      -19.672076    -19.672072   1.000000   1.000000
    2      -19.672073    -19.672069   1.000000   1.000000
    3      -19.635526    -19.635522   1.000000   1.000000
    4      -19.575260    -19.575256   1.000000   1.000000
    5      -19.575259    -19.575255   1.000000   1.000000
    6      -19.426925    -19.426921   1.000000   1.000000
    7      -19.426925    -19.426920   1.000000   1.000000
    8      -19.410099    -19.410095   1.000000   1.000000
    9      -19.355197    -19.355192   1.000000   1.000000
   10      -19.355194    -19.355190   1.000000   1.000000
   11       -6.433919     -6.433921   1.000000   1.000000
   12       -1.117439     -1.117441   1.000000   1.000000
   13        3.600474      3.600468   1.000000   1.000000
   14        3.600475      3.600468   1.000000   1.000000
   15        5.535045      5.535048   0.000000   0.000000
   16        8.719025      8.719030   0.000000   0.000000
   17        8.719045      8.719034   0.000000   0.000000
   18       12.010203     12.010204   0.000000   0.000000
   19       13.031340     13.031340   0.000000   0.000000
   20       14.112188     14.112181   0.000000   0.000000
   21       14.112191     14.112187   0.000000   0.000000
   22       17.442063     17.442066   0.000000   0.000000
   23       21.046289     21.046284   0.000000   0.000000
   24       21.046291     21.046286   0.000000   0.000000
   25       22.187492     22.187488   0.000000   0.000000
   26       22.461539     22.461534   0.000000   0.000000
   27       22.461541     22.461537   0.000000   0.000000
   28       25.561134     25.561134   0.000000   0.000000
   29       31.440391     31.440391   0.000000   0.000000
   30       31.916106     31.916106   0.000000   0.000000
   31       31.916116     31.916109   0.000000   0.000000
   32       32.290391     32.290374   0.000000   0.000000
   33       32.852263     32.852264   0.000000   0.000000
   34       32.852276     32.852266   0.000000   0.000000
   35       33.466077     33.466074   0.000000   0.000000
   36       33.466078     33.466082   0.000000   0.000000
   37       36.416168     36.416183   0.000000   0.000000
   38       38.049661     38.049670   0.000000   0.000000
   39       38.944690     38.944718   0.000000   0.000000
   40       38.945502     38.944917   0.000000   0.000000
   41       39.292929     39.292901   0.000000   0.000000
   42       39.292964     39.294689   0.000000   0.000000
   43       39.733834     39.734228   0.000000   0.000000
   44       40.909612     40.908878   0.000000   0.000000
   45       44.095911     44.098317   0.000000   0.000000
   46       44.935136     44.942743   0.000000   0.000000
   47       45.023182     44.988755   0.000000   0.000000
   48       45.813098     45.822847   0.000000   0.000000
   49       45.830110     45.872028   0.000000   0.000000
   50       47.180114     47.188708   0.000000   0.000000
   51       47.237820     47.265226   0.000000   0.000000
   52       47.596811     47.547918   0.000000   0.000000
   53       48.769781     48.779090   0.000000   0.000000
   54       53.014625     53.053090   0.000000   0.000000
 
  0.5000000E+00  0.0000000E+00  0.0000000E+00  0.1851852E-01
    1      -19.674505    -19.674500   1.000000   1.000000
    2      -19.674502    -19.674498   1.000000   1.000000
    3      -19.630594    -19.630589   1.000000   1.000000
    4      -19.569786    -19.569782   1.000000   1.000000
    5      -19.569785    -19.569780   1.000000   1.000000
    6      -19.430243    -19.430239   1.000000   1.000000
    7      -19.430242    -19.430237   1.000000   1.000000
    8      -19.415442    -19.415438   1.000000   1.000000
    9      -19.352389    -19.352385   1.000000   1.000000
   10      -19.352386    -19.352381   1.000000   1.000000
   11       -5.599419     -5.599421   1.000000   1.000000
   12       -2.644268     -2.644271   1.000000   1.000000
   13        3.356963      3.356957   1.000000   1.000000
   14        3.356964      3.356958   1.000000   1.000000
   15        5.322238      5.322241   0.000000   0.000000
   16        8.715283      8.715288   0.000000   0.000000
   17        8.715306      8.715294   0.000000   0.000000
   18       12.219083     12.219082   0.000000   0.000000
   19       15.613782     15.613783   0.000000   0.000000
   20       16.110831     16.110837   0.000000   0.000000
   21       16.304198     16.304195   0.000000   0.000000
   22       16.304201     16.304198   0.000000   0.000000
   23       17.698500     17.698490   0.000000   0.000000
   24       17.698501     17.698494   0.000000   0.000000
   25       23.962970     23.962968   0.000000   0.000000
   26       26.284040     26.284035   0.000000   0.000000
   27       26.844711     26.844703   0.000000   0.000000
   28       26.844718     26.844715   0.000000   0.000000
   29       27.638790     27.638789   0.000000   0.000000
   30       27.638796     27.638791   0.000000   0.000000
   31       30.700397     30.700397   0.000000   0.000000
   32       31.276150     31.276148   0.000000   0.000000
   33       32.609180     32.609179   0.000000   0.000000
   34       32.609197     32.609188   0.000000   0.000000
   35       32.780139     32.780122   0.000000   0.000000
   36       34.047836     34.047837   0.000000   0.000000
   37       34.047843     34.047840   0.000000   0.000000
   38       37.658005     37.657967   0.000000   0.000000
   39       37.658024     37.657987   0.000000   0.000000
   40       37.811145     37.811116   0.000000   0.000000
   41       37.811151     37.811144   0.000000   0.000000
   42       38.483559     38.483497   0.000000   0.000000
   43       38.542830     38.542729   0.000000   0.000000
   44       39.519235     39.519149   0.000000   0.000000
   45       43.722157     43.720546   0.000000   0.000000
   46       45.721235     45.716630   0.000000   0.000000
   47       45.747712     45.739867   0.000000   0.000000
   48       46.376459     46.380875   0.000000   0.000000
   49       46.439608     46.416407   0.000000   0.000000
   50       47.616260     47.678226   0.000000   0.000000
   51       52.451474     52.419097   0.000000   0.000000
   52       53.066376     53.100838   0.000000   0.000000
   53       53.809464     54.130525   0.000000   0.000000
   54       54.501259     55.081051   0.000000   0.000000
 
  0.1666667E+00  0.1666667E+00  0.0000000E+00  0.2777778E-01
    1      -19.659097    -19.659093   1.000000   1.000000
    2      -19.659096    -19.659092   1.000000   1.000000
    3      -19.658946    -19.658942   1.000000   1.000000
    4      -19.596850    -19.596846   1.000000   1.000000
    5      -19.574003    -19.573999   1.000000   1.000000
    6      -19.447329    -19.447325   1.000000   1.000000
    7      -19.395417    -19.395413   1.000000   1.000000
    8      -19.379557    -19.379553   1.000000   1.000000
    9      -19.379556    -19.379552   1.000000   1.000000
   10      -19.363152    -19.363148   1.000000   1.000000
   11       -7.251589     -7.251590   1.000000   1.000000
   12        1.865820      1.865820   1.000000   1.000000
   13        3.493896      3.493890   1.000000   1.000000
   14        3.493901      3.493895   1.000000   1.000000
   15        6.552450      6.552448   0.000000   0.000000
   16        7.767775      7.767778   0.000000   0.000000
   17        9.301569      9.301568   0.000000   0.000000
   18        9.301573      9.301568   0.000000   0.000000
   19       12.038622     12.038618   0.000000   0.000000
   20       13.530093     13.530094   0.000000   0.000000
   21       15.148842     15.148835   0.000000   0.000000
   22       16.897164     16.897161   0.000000   0.000000
   23       16.897169     16.897167   0.000000   0.000000
   24       17.828709     17.828707   0.000000   0.000000
   25       22.719384     22.719386   0.000000   0.000000
   26       25.543649     25.543649   0.000000   0.000000
   27       25.543650     25.543656   0.000000   0.000000
   28       26.705231     26.705222   0.000000   0.000000
   29       26.906180     26.906183   0.000000   0.000000
   30       31.391251     31.391242   0.000000   0.000000
   31       31.391266     31.391279   0.000000   0.000000
   32       32.308574     32.308588   0.000000   0.000000
   33       35.057985     35.058202   0.000000   0.000000
   34       37.618070     37.620468   0.000000   0.000000
   35       37.687082     37.689862   0.000000   0.000000
   36       37.687488     37.693797   0.000000   0.000000
   37       38.018761     38.021365   0.000000   0.000000
   38       38.020834     38.024934   0.000000   0.000000
   39       38.390587     38.395034   0.000000   0.000000
   40       38.891107     38.895725   0.000000   0.000000
   41       41.576027     41.595819   0.000000   0.000000
   42       42.196831     42.223727   0.000000   0.000000
   43       42.216160     42.344131   0.000000   0.000000
   44       42.942802     43.021054   0.000000   0.000000
   45       43.607093     43.680131   0.000000   0.000000
   46       43.700393     43.861058   0.000000   0.000000
   47       44.536339     44.520904   0.000000   0.000000
   48       44.766871     44.557292   0.000000   0.000000
   49       45.093625     45.337793   0.000000   0.000000
   50       48.398712     48.312657   0.000000   0.000000
   51       48.708027     48.917854   0.000000   0.000000
   52       49.138407     49.729953   0.000000   0.000000
   53       49.912960     50.076500   0.000000   0.000000
   54       50.741882     51.309022   0.000000   0.000000
 
  0.3333333E+00  0.1666667E+00  0.0000000E+00  0.1111111E+00
    1      -19.680014    -19.680010   1.000000   1.000000
    2      -19.669659    -19.669655   1.000000   1.000000
    3      -19.638439    -19.638435   1.000000   1.000000
    4      -19.575529    -19.575525   1.000000   1.000000
    5      -19.547598    -19.547593   1.000000   1.000000
    6      -19.473531    -19.473527   1.000000   1.000000
    7      -19.418113    -19.418109   1.000000   1.000000
    8      -19.393126    -19.393122   1.000000   1.000000
    9      -19.361165    -19.361161   1.000000   1.000000
   10      -19.347172    -19.347168   1.000000   1.000000
   11       -6.498130     -6.498132   1.000000   1.000000
   12       -0.406576     -0.406577   1.000000   1.000000
   13        2.545802      2.545797   1.000000   1.000000
   14        2.873668      2.873662   1.000000   1.000000
   15        6.770239      6.770238   0.000000   0.000000
   16        8.103743      8.103744   0.000000   0.000000
   17        9.963825      9.963822   0.000000   0.000000
   18       10.207036     10.207033   0.000000   0.000000
   19       13.549037     13.549036   0.000000   0.000000
   20       14.825031     14.825031   0.000000   0.000000
   21       15.447732     15.447726   0.000000   0.000000
   22       17.166958     17.166957   0.000000   0.000000
   23       19.747075     19.747071   0.000000   0.000000
   24       21.020985     21.020979   0.000000   0.000000
   25       21.390408     21.390405   0.000000   0.000000
   26       21.548754     21.548749   0.000000   0.000000
   27       25.753123     25.753132   0.000000   0.000000
   28       26.565810     26.565809   0.000000   0.000000
   29       26.886571     26.886565   0.000000   0.000000
   30       28.332385     28.332378   0.000000   0.000000
   31       31.337612     31.337613   0.000000   0.000000
   32       32.123466     32.123460   0.000000   0.000000
   33       34.365345     34.365353   0.000000   0.000000
   34       34.429521     34.429521   0.000000   0.000000
   35       34.625355     34.625345   0.000000   0.000000
   36       35.719047     35.719417   0.000000   0.000000
   37       37.234711     37.234448   0.000000   0.000000
   38       37.522278     37.523065   0.000000   0.000000
   39       38.709487     38.706313   0.000000   0.000000
   40       39.222653     39.220659   0.000000   0.000000
   41       39.960951     39.972268   0.000000   0.000000
   42       40.046897     40.045598   0.000000   0.000000
   43       40.893181     40.885598   0.000000   0.000000
   44       41.852635     41.859118   0.000000   0.000000
   45       43.085448     43.066917   0.000000   0.000000
   46       44.075991     44.069306   0.000000   0.000000
   47       44.991808     45.010226   0.000000   0.000000
   48       46.495264     46.405523   0.000000   0.000000
   49       46.800105     46.824550   0.000000   0.000000
   50       47.058285     47.482789   0.000000   0.000000
   51       48.531615     48.478766   0.000000   0.000000
   52       48.993850     49.120242   0.000000   0.000000
   53       49.714387     49.888134   0.000000   0.000000
   54       51.231843     51.253919   0.000000   0.000000
 
  0.5000000E+00  0.1666667E+00  0.0000000E+00  0.1111111E+00
    1      -19.691468    -19.691465   1.000000   1.000000
    2      -19.678011    -19.678007   1.000000   1.000000
    3      -19.613805    -19.613801   1.000000   1.000000
    4      -19.555795    -19.555790   1.000000   1.000000
    5      -19.546988    -19.546984   1.000000   1.000000
    6      -19.468001    -19.467997   1.000000   1.000000
    7      -19.440882    -19.440877   1.000000   1.000000
    8      -19.420569    -19.420564   1.000000   1.000000
    9      -19.347835    -19.347830   1.000000   1.000000
   10      -19.334507    -19.334503   1.000000   1.000000
   11       -5.432260     -5.432261   1.000000   1.000000
   12       -2.413826     -2.413828   1.000000   1.000000
   13        1.730332      1.730327   1.000000   1.000000
   14        2.799609      2.799603   1.000000   1.000000
   15        6.654295      6.654295   0.000000   0.000000
   16        8.778699      8.778698   0.000000   0.000000
   17        9.940206      9.940203   0.000000   0.000000
   18       11.432772     11.432770   0.000000   0.000000
   19       14.337964     14.337962   0.000000   0.000000
   20       16.144249     16.144249   0.000000   0.000000
   21       16.346785     16.346782   0.000000   0.000000
   22       16.907671     16.907672   0.000000   0.000000
   23       18.227458     18.227451   0.000000   0.000000
   24       21.613607     21.613604   0.000000   0.000000
   25       23.277249     23.277246   0.000000   0.000000
   26       24.146870     24.146865   0.000000   0.000000
   27       25.543124     25.543119   0.000000   0.000000
   28       26.436223     26.436220   0.000000   0.000000
   29       27.673314     27.673308   0.000000   0.000000
   30       28.542049     28.542045   0.000000   0.000000
   31       28.941156     28.941155   0.000000   0.000000
   32       31.119027     31.119026   0.000000   0.000000
   33       31.190354     31.190351   0.000000   0.000000
   34       32.542137     32.542134   0.000000   0.000000
   35       32.799183     32.799174   0.000000   0.000000
   36       32.917919     32.917905   0.000000   0.000000
   37       34.221955     34.221959   0.000000   0.000000
   38       35.910243     35.910307   0.000000   0.000000
   39       37.465472     37.466005   0.000000   0.000000
   40       38.131490     38.131989   0.000000   0.000000
   41       38.910578     38.909723   0.000000   0.000000
   42       39.583435     39.583724   0.000000   0.000000
   43       41.630101     41.631163   0.000000   0.000000
   44       42.686021     42.689985   0.000000   0.000000
   45       42.794802     42.794259   0.000000   0.000000
   46       44.578705     44.609852   0.000000   0.000000
   47       44.926498     44.947830   0.000000   0.000000
   48       47.405924     47.456638   0.000000   0.000000
   49       49.008437     48.945389   0.000000   0.000000
   50       50.128888     50.199375   0.000000   0.000000
   51       50.419582     50.881729   0.000000   0.000000
   52       51.190897     51.154549   0.000000   0.000000
   53       51.913244     51.924902   0.000000   0.000000
   54       54.197189     53.345615   0.000000   0.000000
 
 -0.3333333E+00  0.1666667E+00  0.0000000E+00  0.1111111E+00
    1      -19.687958    -19.687954   1.000000   1.000000
    2      -19.681547    -19.681543   1.000000   1.000000
    3      -19.609530    -19.609526   1.000000   1.000000
    4      -19.568076    -19.568072   1.000000   1.000000
    5      -19.547615    -19.547611   1.000000   1.000000
    6      -19.454621    -19.454616   1.000000   1.000000
    7      -19.437024    -19.437020   1.000000   1.000000
    8      -19.430248    -19.430243   1.000000   1.000000
    9      -19.342812    -19.342807   1.000000   1.000000
   10      -19.339995    -19.339991   1.000000   1.000000
   11       -5.770040     -5.770040   1.000000   1.000000
   12       -1.868838     -1.868839   1.000000   1.000000
   13        1.515366      1.515362   1.000000   1.000000
   14        3.285269      3.285263   1.000000   1.000000
   15        6.795416      6.795418   0.000000   0.000000
   16        9.051383      9.051382   0.000000   0.000000
   17        9.390997      9.390995   0.000000   0.000000
   18       11.736309     11.736310   0.000000   0.000000
   19       13.481513     13.481508   0.000000   0.000000
   20       14.202320     14.202319   0.000000   0.000000
   21       16.177317     16.177315   0.000000   0.000000
   22       17.858418     17.858418   0.000000   0.000000
   23       19.810547     19.810542   0.000000   0.000000
   24       21.582394     21.582392   0.000000   0.000000
   25       21.789448     21.789443   0.000000   0.000000
   26       23.315736     23.315734   0.000000   0.000000
   27       26.063896     26.063894   0.000000   0.000000
   28       27.456505     27.456499   0.000000   0.000000
   29       28.046337     28.046337   0.000000   0.000000
   30       28.503104     28.503101   0.000000   0.000000
   31       29.343545     29.343543   0.000000   0.000000
   32       29.471858     29.471855   0.000000   0.000000
   33       32.220792     32.220791   0.000000   0.000000
   34       32.575976     32.575963   0.000000   0.000000
   35       32.988994     32.988989   0.000000   0.000000
   36       33.331155     33.331151   0.000000   0.000000
   37       35.229599     35.229630   0.000000   0.000000
   38       37.079832     37.079786   0.000000   0.000000
   39       38.317104     38.317434   0.000000   0.000000
   40       38.928137     38.927190   0.000000   0.000000
   41       39.347550     39.347607   0.000000   0.000000
   42       39.406686     39.406931   0.000000   0.000000
   43       41.614226     41.615670   0.000000   0.000000
   44       41.858077     41.859399   0.000000   0.000000
   45       42.019882     42.021139   0.000000   0.000000
   46       44.857406     44.819979   0.000000   0.000000
   47       44.979503     44.979473   0.000000   0.000000
   48       45.920947     45.966619   0.000000   0.000000
   49       46.468394     46.456390   0.000000   0.000000
   50       48.282484     48.284049   0.000000   0.000000
   51       51.048487     50.604430   0.000000   0.000000
   52       51.957730     51.834607   0.000000   0.000000
   53       52.998282     53.202974   0.000000   0.000000
   54       53.928199     54.302857   0.000000   0.000000
 
 -0.1666667E+00  0.1666667E+00  0.0000000E+00  0.5555556E-01
    1      -19.675957    -19.675953   1.000000   1.000000
    2      -19.671053    -19.671049   1.000000   1.000000
    3      -19.632453    -19.632449   1.000000   1.000000
    4      -19.585517    -19.585513   1.000000   1.000000
    5      -19.566747    -19.566742   1.000000   1.000000
    6      -19.441139    -19.441134   1.000000   1.000000
    7      -19.426038    -19.426034   1.000000   1.000000
    8      -19.396550    -19.396545   1.000000   1.000000
    9      -19.363386    -19.363382   1.000000   1.000000
   10      -19.348787    -19.348783   1.000000   1.000000
   11       -6.822294     -6.822296   1.000000   1.000000
   12        0.296575      0.296574   1.000000   1.000000
   13        2.269539      2.269534   1.000000   1.000000
   14        4.073113      4.073107   1.000000   1.000000
   15        6.971094      6.971096   0.000000   0.000000
   16        8.468515      8.468512   0.000000   0.000000
   17        8.752676      8.752674   0.000000   0.000000
   18       10.117612     10.117611   0.000000   0.000000
   19       12.483003     12.482998   0.000000   0.000000
   20       14.448464     14.448465   0.000000   0.000000
   21       14.495940     14.495938   0.000000   0.000000
   22       17.062482     17.062477   0.000000   0.000000
   23       18.211970     18.211968   0.000000   0.000000
   24       20.994312     20.994308   0.000000   0.000000
   25       21.788187     21.788183   0.000000   0.000000
   26       24.028972     24.028974   0.000000   0.000000
   27       25.580665     25.580667   0.000000   0.000000
   28       26.261366     26.261364   0.000000   0.000000
   29       26.744343     26.744336   0.000000   0.000000
   30       28.343773     28.343766   0.000000   0.000000
   31       31.710276     31.710267   0.000000   0.000000
   32       33.885526     33.885525   0.000000   0.000000
   33       34.806757     34.806585   0.000000   0.000000
   34       35.147085     35.147059   0.000000   0.000000
   35       35.709055     35.708717   0.000000   0.000000
   36       35.926148     35.926152   0.000000   0.000000
   37       38.276326     38.275969   0.000000   0.000000
   38       38.598113     38.597367   0.000000   0.000000
   39       39.050800     39.051199   0.000000   0.000000
   40       39.438029     39.431304   0.000000   0.000000
   41       39.625937     39.627038   0.000000   0.000000
   42       40.650185     40.649000   0.000000   0.000000
   43       41.517996     41.515760   0.000000   0.000000
   44       41.519888     41.530378   0.000000   0.000000
   45       42.213081     42.220522   0.000000   0.000000
   46       42.298399     42.309986   0.000000   0.000000
   47       44.271571     44.279348   0.000000   0.000000
   48       44.415966     44.357561   0.000000   0.000000
   49       46.864823     46.758486   0.000000   0.000000
   50       47.124232     47.134774   0.000000   0.000000
   51       47.689165     47.841591   0.000000   0.000000
   52       48.625776     48.830797   0.000000   0.000000
   53       49.535905     49.921543   0.000000   0.000000
   54       51.786505     51.895334   0.000000   0.000000
 
  0.3333333E+00  0.3333333E+00  0.0000000E+00  0.2777778E-01
    1      -19.676214    -19.676210   1.000000   1.000000
    2      -19.676213    -19.676209   1.000000   1.000000
    3      -19.644628    -19.644624   1.000000   1.000000
    4      -19.552783    -19.552778   1.000000   1.000000
    5      -19.524091    -19.524087   1.000000   1.000000
    6      -19.504987    -19.504983   1.000000   1.000000
    7      -19.436441    -19.436436   1.000000   1.000000
    8      -19.381459    -19.381455   1.000000   1.000000
    9      -19.351103    -19.351099   1.000000   1.000000
   10      -19.351102    -19.351098   1.000000   1.000000
   11       -5.930896     -5.930897   1.000000   1.000000
   12       -1.148287     -1.148287   1.000000   1.000000
   13        2.166326      2.166320   1.000000   1.000000
   14        2.166330      2.166324   1.000000   1.000000
   15        5.688040      5.688039   0.000000   0.000000
   16        7.019381      7.019381   0.000000   0.000000
   17       12.237240     12.237241   0.000000   0.000000