       N       E                     dE             d eps       ncg     rms          ort
DAV:   1     0.250136608758E+03    0.25014E+03   -0.11256E+04   864   0.169E+03
DAV:   2     0.512668936594E+02   -0.19887E+03   -0.18063E+03   864   0.354E+02
DAV:   3    -0.315077056307E+01   -0.54418E+02   -0.52625E+02   864   0.842E+01
DAV:   4    -0.108514008551E+02   -0.77006E+01   -0.75971E+01   864   0.351E+01
DAV:   5    -0.116080735276E+02   -0.75667E+00   -0.75488E+00   864   0.116E+01
SDA:   6    -0.112843529552E+02    0.32372E+00   -0.65567E-01   864   0.164E+00 0.000E+00
DMP:   7    -0.113351156085E+02   -0.50763E-01   -0.35679E-01   864   0.548E-01 0.899E-01
DMP:   8    -0.113595066960E+02   -0.24391E-01   -0.11140E-01   864   0.153E-01 0.328E-01
DMP:   9    -0.113669383919E+02   -0.74317E-02   -0.41508E-02   864   0.681E-02 0.934E-02
DMP:  10    -0.113699203612E+02   -0.29820E-02   -0.20066E-02   864   0.328E-02 0.455E-02
DMP:  11    -0.113714090790E+02   -0.14887E-02   -0.87680E-03   864   0.126E-02 0.245E-02
DMP:  12    -0.113720304317E+02   -0.62135E-03   -0.28829E-03   864   0.364E-03 0.933E-03
DMP:  13    -0.113722206897E+02   -0.19026E-03   -0.83344E-04   864   0.115E-03 0.244E-03
DMP:  14    -0.113722739765E+02   -0.53287E-04   -0.28197E-04   864   0.454E-04 0.656E-04
   1 F= -.11372274E+02 E0= -.11372274E+02  d E =-.277212E-14  mag=    -0.0000
