       N       E                     dE             d eps       ncg     rms          ort
DAV:   1     0.250138067223E+03    0.25014E+03   -0.11256E+04   864   0.169E+03
DAV:   2     0.512685775283E+02   -0.19887E+03   -0.18063E+03   864   0.354E+02
DAV:   3    -0.314901410991E+01   -0.54418E+02   -0.52625E+02   864   0.842E+01
DAV:   4    -0.108496304572E+02   -0.77006E+01   -0.75971E+01   864   0.351E+01
DAV:   5    -0.116063006746E+02   -0.75667E+00   -0.75488E+00   864   0.116E+01
SDA:   6    -0.112827558315E+02    0.32354E+00   -0.65555E-01   864   0.164E+00 0.000E+00
DMP:   7    -0.113335085118E+02   -0.50753E-01   -0.35670E-01   864   0.548E-01 0.899E-01
DMP:   8    -0.113578922253E+02   -0.24384E-01   -0.11136E-01   864   0.153E-01 0.328E-01
DMP:   9    -0.113653206241E+02   -0.74284E-02   -0.41491E-02   864   0.681E-02 0.933E-02
DMP:  10    -0.113683013518E+02   -0.29807E-02   -0.20060E-02   864   0.328E-02 0.455E-02
DMP:  11    -0.113697895790E+02   -0.14882E-02   -0.87653E-03   864   0.126E-02 0.244E-02
DMP:  12    -0.113704107290E+02   -0.62115E-03   -0.28819E-03   864   0.364E-03 0.932E-03
DMP:  13    -0.113706009099E+02   -0.19018E-03   -0.83308E-04   864   0.115E-03 0.244E-03
DMP:  14    -0.113706541714E+02   -0.53262E-04   -0.28186E-04   864   0.454E-04 0.655E-04
   1 F= -.11370654E+02 E0= -.11370654E+02  d E =-.291660E-14  mag=    -0.0000
