 vasp.5.4.4.18Apr17-6-g9f103f2a35 (build Sep 01 2023 15:42:28) complex          
  
 executed on             LinuxIFC date 2023.11.23  02:44:54
 running on   54 total cores
 distrk:  each k-point on    9 cores,    6 groups
 distr:  one band on NCORES_PER_BAND=   3 cores,    3 groups


--------------------------------------------------------------------------------------------------------


 INCAR:
 POTCAR:    PAW_PBE Ge_d 03Jul2007                

 ----------------------------------------------------------------------------- 
|                                                                             |
|           W    W    AA    RRRRR   N    N  II  N    N   GGGG   !!!           |
|           W    W   A  A   R    R  NN   N  II  NN   N  G    G  !!!           |
|           W    W  A    A  R    R  N N  N  II  N N  N  G       !!!           |
|           W WW W  AAAAAA  RRRRR   N  N N  II  N  N N  G  GGG   !            |
|           WW  WW  A    A  R   R   N   NN  II  N   NN  G    G                |
|           W    W  A    A  R    R  N    N  II  N    N   GGGG   !!!           |
|                                                                             |
|      For optimal performance we recommend to set                            |
|        NCORE= 4 - approx SQRT( number of cores)                             |
|      NCORE specifies how many cores store one orbital (NPAR=cpu/NCORE).     |
|      This setting can  greatly improve the performance of VASP for DFT.     |
|      The default,   NCORE=1            might be grossly inefficient         |
|      on modern multi-core architectures or massively parallel machines.     |
|      Do your own testing !!!!                                               |
|      Unfortunately you need to use the default for GW and RPA calculations. |
|      (for HF NCORE is supported but not extensively tested yet)             |
|                                                                             |
 ----------------------------------------------------------------------------- 


 ----------------------------------------------------------------------------- 
|                                                                             |
|           W    W    AA    RRRRR   N    N  II  N    N   GGGG   !!!           |
|           W    W   A  A   R    R  NN   N  II  NN   N  G    G  !!!           |
|           W    W  A    A  R    R  N N  N  II  N N  N  G       !!!           |
|           W WW W  AAAAAA  RRRRR   N  N N  II  N  N N  G  GGG   !            |
|           WW  WW  A    A  R   R   N   NN  II  N   NN  G    G                |
|           W    W  A    A  R    R  N    N  II  N    N   GGGG   !!!           |
|                                                                             |
|      You have enabled k-point parallelism (KPAR>1).                         |
|      This developmental code was originally  written by Paul Kent at ORNL,  |
|      and carefully double checked in Vienna.                                |
|      GW as well as linear response parallelism added by Martijn Marsman     |
|      and Georg Kresse.                                                      |
|      Carefully verify results versus KPAR=1.                                |
|      Report problems to Paul Kent and Vienna.                               |
|                                                                             |
 ----------------------------------------------------------------------------- 

 POTCAR:    PAW_PBE Ge_d 03Jul2007                
   VRHFIN =Ge: 3d4s4p                                                           
   LEXCH  = PE                                                                  
   EATOM  =  2596.2402 eV,  190.8183 Ry                                         
                                                                                
   TITEL  = PAW_PBE Ge_d 03Jul2007                                              
   LULTRA =        F    use ultrasoft PP ?                                      
   IUNSCR =        1    unscreen: 0-lin 1-nonlin 2-no                           
   RPACOR =    2.000    partial core radius                                     
   POMASS =   72.610; ZVAL   =   14.000    mass and valenz                      
   RCORE  =    2.300    outmost cutoff radius                                   
   RWIGS  =    2.300; RWIGS  =    1.217    wigner-seitz radius (au A)           
   ENMAX  =  310.294; ENMIN  =  232.720 eV                                      
   ICORE  =        3    local potential                                         
   LCOR   =        T    correct aug charges                                     
   LPAW   =        T    paw PP                                                  
   EAUG   =  531.356                                                            
   DEXC   =    0.000                                                            
   RMAX   =    2.342    core radius for proj-oper                               
   RAUG   =    1.300    factor for augmentation sphere                          
   RDEP   =    2.318    radius for radial grids                                 
   RDEPT  =    1.783    core radius for aug-charge                              
                                                                                
   Atomic configuration                                                         
    9 entries                                                                   
     n  l   j            E        occ.                                          
     1  0  0.50    -10959.8463   2.0000                                         
     2  0  0.50     -1371.6056   2.0000                                         
     2  1  1.50     -1198.4791   6.0000                                         
     3  0  0.50      -168.4733   2.0000                                         
     3  1  1.50      -115.6019   6.0000                                         
     3  2  2.50       -29.3106  10.0000                                         
     4  0  0.50       -11.7309   2.0000                                         
     4  1  0.50        -3.8952   2.0000                                         
     4  3  2.50        -4.0817   0.0000                                         
   Description                                                                  
     l       E           TYP  RCUT    TYP  RCUT                                 
     2    -29.3105938     23  2.200                                             
     2    -13.6058260     23  2.200                                             
     0    -11.7309493     23  2.300                                             
     0     -7.4578696     23  2.300                                             
     1     -3.8952261     23  2.300                                             
     1      6.1178114     23  2.300                                             
     3     -1.3605826     23  2.300                                             
  local pseudopotential read in
  partial core-charges read in
  partial kinetic energy density read in
  atomic valenz-charges read in
  non local Contribution for L=           2  read in
    real space projection operators read in
  non local Contribution for L=           2  read in
    real space projection operators read in
  non local Contribution for L=           0  read in
    real space projection operators read in
  non local Contribution for L=           0  read in
    real space projection operators read in
  non local Contribution for L=           1  read in
    real space projection operators read in
  non local Contribution for L=           1  read in
    real space projection operators read in
    PAW grid and wavefunctions read in
 
   number of l-projection  operators is LMAX  =           6
   number of lm-projection operators is LMMAX =          18
 
  PAW_PBE Ge_d 03Jul2007                :
 energy of atom  1       EATOM=-2596.2402
 kinetic energy error for atom=    0.0077 (will be added to EATOM!!)
 
 
 POSCAR: Ge                                      
  positions in direct lattice
  No initial velocities read in
 exchange correlation table for  LEXCH =        8
   RHO(1)=    0.500       N(1)  =     2000
   RHO(2)=  100.500       N(2)  =     4000
 


--------------------------------------------------------------------------------------------------------


 ion  position               nearest neighbor table
   1  0.000  0.000  0.000-   2 2.44   2 2.44   2 2.44   2 2.44
   2  0.250  0.250  0.250-   1 2.44   1 2.44   1 2.44   1 2.44
 
  LATTYP: Found a face centered cubic cell.
 ALAT       =     5.6330000000
  
  Lattice vectors:
  
 A1 = (   0.0000000000,   2.8165000000,   2.8165000000)
 A2 = (   2.8165000000,   0.0000000000,   2.8165000000)
 A3 = (   2.8165000000,   2.8165000000,   0.0000000000)


Analysis of symmetry for initial positions (statically):
=====================================================================
 Subroutine PRICEL returns:
 Original cell was already a primitive cell.
 

 Routine SETGRP: Setting up the symmetry group for a 
 face centered cubic supercell.


 Subroutine GETGRP returns: Found 48 space group operations
 (whereof 24 operations were pure point group operations)
 out of a pool of 48 trial point group operations.


The static configuration has the point symmetry T_d .
 The point group associated with its full space group is O_h .


Analysis of symmetry for dynamics (positions and initial velocities):
=====================================================================
 Subroutine PRICEL returns:
 Original cell was already a primitive cell.
 

 Routine SETGRP: Setting up the symmetry group for a 
 face centered cubic supercell.


 Subroutine GETGRP returns: Found 48 space group operations
 (whereof 24 operations were pure point group operations)
 out of a pool of 48 trial point group operations.


The dynamic configuration has the point symmetry T_d .
 The point group associated with its full space group is O_h .


Analysis of structural, dynamic, and magnetic symmetry:
=====================================================================
 Subroutine PRICEL returns:
 Original cell was already a primitive cell.
 

 Routine SETGRP: Setting up the symmetry group for a 
 face centered cubic supercell.


 Subroutine GETGRP returns: Found 48 space group operations
 (whereof 24 operations were pure point group operations)
 out of a pool of 48 trial point group operations.


The magnetic configuration has the point symmetry T_d .
 The point group associated with its full space group is O_h .


 Subroutine INISYM returns: Found 48 space group operations
 (whereof 24 operations are pure point group operations),
 and found     1 'primitive' translations

 
 
 KPOINTS: KPOINTS created by Atomic Simulation Env

Automatic generation of k-mesh.
Space group operators:
 irot       det(A)        alpha          n_x          n_y          n_z        tau_x        tau_y        tau_z
    1     1.000000     0.000000     1.000000     0.000000     0.000000     0.000000     0.000000     0.000000
    2     1.000000   120.000000    -0.577350    -0.577350    -0.577350     0.000000     0.000000     0.000000
    3     1.000000   120.000000     0.577350     0.577350     0.577350     0.000000     0.000000     0.000000
    4    -1.000000    90.000000     0.000000     0.000000    -1.000000     0.000000     0.000000     0.000000
    5    -1.000000   180.000000     0.000000     0.707107     0.707107     0.000000     0.000000     0.000000
    6    -1.000000    90.000000     0.000000     1.000000     0.000000     0.000000     0.000000     0.000000
    7     1.000000   180.000000     0.000000     0.000000     1.000000     0.000000     0.000000     0.000000
    8     1.000000   120.000000    -0.577350     0.577350     0.577350     0.000000     0.000000     0.000000
    9     1.000000   120.000000    -0.577350     0.577350    -0.577350     0.000000     0.000000     0.000000
   10    -1.000000    90.000000     0.000000     0.000000     1.000000     0.000000     0.000000     0.000000
   11    -1.000000    90.000000    -1.000000     0.000000     0.000000     0.000000     0.000000     0.000000
   12    -1.000000   180.000000     0.707107     0.000000     0.707107     0.000000     0.000000     0.000000
   13     1.000000   120.000000     0.577350    -0.577350     0.577350     0.000000     0.000000     0.000000
   14     1.000000   120.000000    -0.577350    -0.577350     0.577350     0.000000     0.000000     0.000000
   15     1.000000   180.000000     1.000000     0.000000     0.000000     0.000000     0.000000     0.000000
   16    -1.000000    90.000000     0.000000    -1.000000     0.000000     0.000000     0.000000     0.000000
   17    -1.000000   180.000000     0.707107     0.707107     0.000000     0.000000     0.000000     0.000000
   18    -1.000000    90.000000     1.000000     0.000000     0.000000     0.000000     0.000000     0.000000
   19     1.000000   120.000000     0.577350    -0.577350    -0.577350     0.000000     0.000000     0.000000
   20     1.000000   180.000000     0.000000     1.000000     0.000000     0.000000     0.000000     0.000000
   21     1.000000   120.000000     0.577350     0.577350    -0.577350     0.000000     0.000000     0.000000
   22    -1.000000   180.000000     0.000000    -0.707107     0.707107     0.000000     0.000000     0.000000
   23    -1.000000   180.000000     0.707107    -0.707107     0.000000     0.000000     0.000000     0.000000
   24    -1.000000   180.000000     0.707107     0.000000    -0.707107     0.000000     0.000000     0.000000
   25    -1.000000     0.000000     1.000000     0.000000     0.000000     0.250000     0.250000     0.250000
   26    -1.000000   120.000000    -0.577350    -0.577350    -0.577350     0.250000     0.250000     0.250000
   27    -1.000000   120.000000     0.577350     0.577350     0.577350     0.250000     0.250000     0.250000
   28     1.000000    90.000000     0.000000     0.000000    -1.000000     0.250000     0.250000     0.250000
   29     1.000000   180.000000     0.000000     0.707107     0.707107     0.250000     0.250000     0.250000
   30     1.000000    90.000000     0.000000     1.000000     0.000000     0.250000     0.250000     0.250000
   31    -1.000000   180.000000     0.000000     0.000000     1.000000     0.250000     0.250000     0.250000
   32    -1.000000   120.000000    -0.577350     0.577350     0.577350     0.250000     0.250000     0.250000
   33    -1.000000   120.000000    -0.577350     0.577350    -0.577350     0.250000     0.250000     0.250000
   34     1.000000    90.000000     0.000000     0.000000     1.000000     0.250000     0.250000     0.250000
   35     1.000000    90.000000    -1.000000     0.000000     0.000000     0.250000     0.250000     0.250000
   36     1.000000   180.000000     0.707107     0.000000     0.707107     0.250000     0.250000     0.250000
   37    -1.000000   120.000000     0.577350    -0.577350     0.577350     0.250000     0.250000     0.250000
   38    -1.000000   120.000000    -0.577350    -0.577350     0.577350     0.250000     0.250000     0.250000
   39    -1.000000   180.000000     1.000000     0.000000     0.000000     0.250000     0.250000     0.250000
   40     1.000000    90.000000     0.000000    -1.000000     0.000000     0.250000     0.250000     0.250000
   41     1.000000   180.000000     0.707107     0.707107     0.000000     0.250000     0.250000     0.250000
   42     1.000000    90.000000     1.000000     0.000000     0.000000     0.250000     0.250000     0.250000
   43    -1.000000   120.000000     0.577350    -0.577350    -0.577350     0.250000     0.250000     0.250000
   44    -1.000000   180.000000     0.000000     1.000000     0.000000     0.250000     0.250000     0.250000
   45    -1.000000   120.000000     0.577350     0.577350    -0.577350     0.250000     0.250000     0.250000
   46     1.000000   180.000000     0.000000    -0.707107     0.707107     0.250000     0.250000     0.250000
   47     1.000000   180.000000     0.707107    -0.707107     0.000000     0.250000     0.250000     0.250000
   48     1.000000   180.000000     0.707107     0.000000    -0.707107     0.250000     0.250000     0.250000
 
 Subroutine IBZKPT returns following result:
 ===========================================
 
 Found     16 irreducible k-points:
 
 Following reciprocal coordinates:
            Coordinates               Weight
  0.000000  0.000000  0.000000      1.000000
  0.166667  0.000000  0.000000      8.000000
  0.333333  0.000000  0.000000      8.000000
  0.500000  0.000000  0.000000      4.000000
  0.166667  0.166667  0.000000      6.000000
  0.333333  0.166667  0.000000     24.000000
  0.500000  0.166667  0.000000     24.000000
 -0.333333  0.166667  0.000000     24.000000
 -0.166667  0.166667  0.000000     12.000000
  0.333333  0.333333  0.000000      6.000000
  0.500000  0.333333  0.000000     24.000000
 -0.333333  0.333333  0.000000     12.000000
  0.500000  0.500000  0.000000      3.000000
  0.500000  0.333333  0.166667     24.000000
 -0.333333  0.333333  0.166667     24.000000
 -0.333333  0.500000  0.166667     12.000000
 
 Following cartesian coordinates:
            Coordinates               Weight
  0.000000  0.000000  0.000000      1.000000
 -0.029588  0.029588  0.029588      8.000000
 -0.059175  0.059175  0.059175      8.000000
 -0.088763  0.088763  0.088763      4.000000
  0.000000  0.000000  0.059175      6.000000
 -0.029588  0.029588  0.088763     24.000000
 -0.059175  0.059175  0.118350     24.000000
  0.088763 -0.088763 -0.029588     24.000000
  0.059175 -0.059175  0.000000     12.000000
  0.000000  0.000000  0.118350      6.000000
 -0.029588  0.029588  0.147938     24.000000
  0.118350 -0.118350  0.000000     12.000000
  0.000000  0.000000  0.177525      3.000000
  0.000000  0.059175  0.118350     24.000000
  0.147938 -0.088763 -0.029588     24.000000
  0.177525 -0.118350 -0.000000     12.000000
 


--------------------------------------------------------------------------------------------------------




 Dimension of arrays:
   k-points           NKPTS =     16   k-points in BZ     NKDIM =     16   number of bands    NBANDS=     54
   number of dos      NEDOS =    301   number of ions     NIONS =      2
   non local maximal  LDIM  =      6   non local SUM 2l+1 LMDIM =     18
   total plane-waves  NPLWV =  13824
   max r-space proj   IRMAX =      1   max aug-charges    IRDMAX=  10603
   dimension x,y,z NGX =    24 NGY =   24 NGZ =   24
   dimension x,y,z NGXF=    48 NGYF=   48 NGZF=   48
   support grid    NGXF=    48 NGYF=   48 NGZF=   48
   ions per type =               2
   NGX,Y,Z   is equivalent  to a cutoff of  10.02, 10.02, 10.02 a.u.
   NGXF,Y,Z  is equivalent  to a cutoff of  20.03, 20.03, 20.03 a.u.

 SYSTEM =  unknown system                          
 POSCAR =  Ge                                      

 Startparameter for this run:
   NWRITE =      2    write-flag & timer
   PREC   = n         normal or accurate (medium, high low for compatibility)
   ISTART =      0    job   : 0-new  1-cont  2-samecut
   ICHARG =      2    charge: 1-file 2-atom 10-const
   ISPIN  =      2    spin polarized calculation?
   LNONCOLLINEAR =      F non collinear calculations
   LSORBIT =      F    spin-orbit coupling
   INIWAV =      1    electr: 0-lowe 1-rand  2-diag
   LASPH  =      F    aspherical Exc in radial PAW
   METAGGA=      F    non-selfconsistent MetaGGA calc.

 Electronic Relaxation 1
   ENCUT  =  450.0 eV  33.07 Ry    5.75 a.u.   6.89  6.89  6.89*2*pi/ulx,y,z
   ENINI  =  450.0     initial cutoff
   ENAUG  =  531.4 eV  augmentation charge cutoff
   NELM   =     60;   NELMIN=  2; NELMDL= -5     # of ELM steps 
   EDIFF  = 0.1E-03   stopping-criterion for ELM
   LREAL  =      F    real-space projection
   NLSPLINE    = F    spline interpolate recip. space projectors
   LCOMPAT=      F    compatible to vasp.4.4
   GGA_COMPAT  = T    GGA compatible to vasp.4.4-vasp.4.6
   LMAXPAW     = -100 max onsite density
   LMAXMIX     =    2 max onsite mixed and CHGCAR
   VOSKOWN=      0    Vosko Wilk Nusair interpolation
   ROPT   =    0.00000
 Ionic relaxation
   EDIFFG = 0.1E-02   stopping-criterion for IOM
   NSW    =      0    number of steps for IOM
   NBLOCK =      1;   KBLOCK =      1    inner block; outer block 
   IBRION =     -1    ionic relax: 0-MD 1-quasi-New 2-CG
   NFREE  =      0    steps in history (QN), initial steepest desc. (CG)
   ISIF   =      2    stress and relaxation
   IWAVPR =     10    prediction:  0-non 1-charg 2-wave 3-comb
   ISYM   =      2    0-nonsym 1-usesym 2-fastsym
   LCORR  =      T    Harris-Foulkes like correction to forces

   POTIM  = 0.5000    time-step for ionic-motion
   TEIN   =    0.0    initial temperature
   TEBEG  =    0.0;   TEEND  =   0.0 temperature during run
   SMASS  =  -3.00    Nose mass-parameter (am)
   estimated Nose-frequenzy (Omega)   =  0.10E-29 period in steps =****** mass=  -0.363E-27a.u.
   SCALEE = 1.0000    scale energy and forces
   NPACO  =    256;   APACO  = 16.0  distance and # of slots for P.C.
   PSTRESS=    0.0 pullay stress

  Mass of Ions in am
   POMASS =  72.61
  Ionic Valenz
   ZVAL   =  14.00
  Atomic Wigner-Seitz radii
   RWIGS  =  -1.00
  virtual crystal weights 
   VCA    =   1.00
   NELECT =      28.0000    total number of electrons
   NUPDOWN=      -1.0000    fix difference up-down

 DOS related values:
   EMIN   =  10.00;   EMAX   =-10.00  energy-range for DOS
   EFERMI =   0.00
   ISMEAR =     0;   SIGMA  =   0.05  broadening in eV -4-tet -1-fermi 0-gaus

 Electronic relaxation 2 (details)
   IALGO  =     53    algorithm
   LDIAG  =      T    sub-space diagonalisation (order eigenvalues)
   LSUBROT=      F    optimize rotation matrix (better conditioning)
   TURBO    =      0    0=normal 1=particle mesh
   IRESTART =      0    0=no restart 2=restart with 2 vectors
   NREBOOT  =      0    no. of reboots
   NMIN     =      0    reboot dimension
   EREF     =   0.00    reference energy to select bands
   IMIX   =      4    mixing-type and parameters
     AMIX     =   0.40;   BMIX     =  1.00
     AMIX_MAG =   1.60;   BMIX_MAG =  1.00
     AMIN     =   0.10
     WC   =   100.;   INIMIX=   1;  MIXPRE=   1;  MAXMIX= -45

 Intra band minimization:
   WEIMIN = 0.0000     energy-eigenvalue tresh-hold
   EBREAK =  0.46E-06  absolut break condition
   DEPER  =   0.30     relativ break condition  

   TIME   =   0.40     timestep for ELM

  volume/ion in A,a.u.               =      22.34       150.77
  Fermi-wavevector in a.u.,A,eV,Ry     =   1.400902  2.647321 26.701793  1.962526
  Thomas-Fermi vector in A             =   2.523816
 
 Write flags
   LWAVE        =      T    write WAVECAR
   LDOWNSAMPLE  =      F    k-point downsampling of WAVECAR
   LCHARG       =      T    write CHGCAR
   LVTOT        =      F    write LOCPOT, total local potential
   LVHAR        =      F    write LOCPOT, Hartree potential only
   LELF         =      F    write electronic localiz. function (ELF)
   LORBIT       =     11    0 simple, 1 ext, 2 COOP (PROOUT), +10 PAW based schemes


 Dipole corrections
   LMONO  =      F    monopole corrections only (constant potential shift)
   LDIPOL =      F    correct potential (dipole corrections)
   IDIPOL =      0    1-x, 2-y, 3-z, 4-all directions 
   EPSILON=  1.0000000 bulk dielectric constant

 LDA+U is selected, type is set to LDAUTYPE =  2
   angular momentum for each species LDAUL =     1
   U (eV)           for each species LDAUU =  -2.3
   J (eV)           for each species LDAUJ =   0.0
 Exchange correlation treatment:
   GGA     =    PE    GGA type
   LEXCH   =     8    internal setting for exchange type
   VOSKOWN=      0    Vosko Wilk Nusair interpolation
   LHFCALC =     F    Hartree Fock is set to
   LHFONE  =     F    Hartree Fock one center treatment
   AEXX    =    0.0000 exact exchange contribution

 Linear response parameters
   LEPSILON=     F    determine dielectric tensor
   LRPA    =     F    only Hartree local field effects (RPA)
   LNABLA  =     F    use nabla operator in PAW spheres
   LVEL    =     F    velocity operator in full k-point grid
   LINTERFAST=   F  fast interpolation
   KINTER  =     0    interpolate to denser k-point grid
   CSHIFT  =0.1000    complex shift for real part using Kramers Kronig
   OMEGAMAX=  -1.0    maximum frequency
   DEG_THRESHOLD= 0.2000000E-02 threshold for treating states as degnerate
   RTIME   =   -0.100 relaxation time in fs
  (WPLASMAI=    0.000 imaginary part of plasma frequency in eV, 0.658/RTIME)
   DFIELD  = 0.0000000 0.0000000 0.0000000 field for delta impulse in time
 
 Orbital magnetization related:
   ORBITALMAG=     F  switch on orbital magnetization
   LCHIMAG   =     F  perturbation theory with respect to B field
   DQ        =  0.001000  dq finite difference perturbation B field
   LLRAUG    =     F  two centre corrections for induced B field



--------------------------------------------------------------------------------------------------------


 Static calculation
 charge density and potential will be updated during run
 spin polarized calculation
 Conjugate gradient for all bands (Freysoldt, et al. PRB 79, 241103 (2009))
 perform sub-space diagonalisation
    before iterative eigenvector-optimisation
 modified Broyden-mixing scheme, WC =      100.0
 initial mixing is a Kerker type mixing with AMIX =  0.4000 and BMIX =      1.0000
 Hartree-type preconditioning will be used
 using additional bands           40
 reciprocal scheme for non local part
 use partial core corrections
 no Harris-corrections to forces 
 use gradient corrections 
 use of overlap-Matrix (Vanderbilt PP)
 Gauss-broadening in eV      SIGMA  =   0.05


--------------------------------------------------------------------------------------------------------


  energy-cutoff  :      450.00
  volume of cell :       44.68
      direct lattice vectors                 reciprocal lattice vectors
     0.000000000  2.816500000  2.816500000    -0.177525297  0.177525297  0.177525297
     2.816500000  0.000000000  2.816500000     0.177525297 -0.177525297  0.177525297
     2.816500000  2.816500000  0.000000000     0.177525297  0.177525297 -0.177525297

  length of vectors
     3.983132498  3.983132498  3.983132498     0.307482835  0.307482835  0.307482835


 
 k-points in units of 2pi/SCALE and weight: KPOINTS created by Atomic Simulation Env
   0.00000000  0.00000000  0.00000000       0.005
  -0.02958755  0.02958755  0.02958755       0.037
  -0.05917510  0.05917510  0.05917510       0.037
  -0.08876265  0.08876265  0.08876265       0.019
   0.00000000  0.00000000  0.05917510       0.028
  -0.02958755  0.02958755  0.08876265       0.111
  -0.05917510  0.05917510  0.11835020       0.111
   0.08876265 -0.08876265 -0.02958755       0.111
   0.05917510 -0.05917510  0.00000000       0.056
   0.00000000  0.00000000  0.11835020       0.028
  -0.02958755  0.02958755  0.14793775       0.111
   0.11835020 -0.11835020  0.00000000       0.056
   0.00000000  0.00000000  0.17752530       0.014
   0.00000000  0.05917510  0.11835020       0.111
   0.14793775 -0.08876265 -0.02958755       0.111
   0.17752530 -0.11835020 -0.00000000       0.056
 
 k-points in reciprocal lattice and weights: KPOINTS created by Atomic Simulation Env
   0.00000000  0.00000000  0.00000000       0.005
   0.16666667  0.00000000  0.00000000       0.037
   0.33333333  0.00000000  0.00000000       0.037
   0.50000000  0.00000000  0.00000000       0.019
   0.16666667  0.16666667  0.00000000       0.028
   0.33333333  0.16666667  0.00000000       0.111
   0.50000000  0.16666667  0.00000000       0.111
  -0.33333333  0.16666667  0.00000000       0.111
  -0.16666667  0.16666667  0.00000000       0.056
   0.33333333  0.33333333  0.00000000       0.028
   0.50000000  0.33333333  0.00000000       0.111
  -0.33333333  0.33333333  0.00000000       0.056
   0.50000000  0.50000000  0.00000000       0.014
   0.50000000  0.33333333  0.16666667       0.111
  -0.33333333  0.33333333  0.16666667       0.111
  -0.33333333  0.50000000  0.16666667       0.056
 
 position of ions in fractional coordinates (direct lattice) 
   0.00000000  0.00000000  0.00000000
   0.25000000  0.25000000  0.25000000
 
 position of ions in cartesian coordinates  (Angst):
   0.00000000  0.00000000  0.00000000
   1.40825000  1.40825000  1.40825000
 


--------------------------------------------------------------------------------------------------------


 k-point  1 :   0.0000 0.0000 0.0000  plane waves:     941
 k-point  2 :   0.1667 0.0000 0.0000  plane waves:     956
 k-point  3 :   0.3333 0.0000 0.0000  plane waves:     968
 k-point  4 :   0.5000 0.0000 0.0000  plane waves:     978
 k-point  5 :   0.1667 0.1667 0.0000  plane waves:     966
 k-point  6 :   0.3333 0.1667 0.0000  plane waves:     965
 k-point  7 :   0.5000 0.1667 0.0000  plane waves:     972
 k-point  8 :  -0.3333 0.1667 0.0000  plane waves:     969
 k-point  9 :  -0.1667 0.1667 0.0000  plane waves:     961
 k-point 10 :   0.3333 0.3333 0.0000  plane waves:     962
 k-point 11 :   0.5000 0.3333 0.0000  plane waves:     975
 k-point 12 :  -0.3333 0.3333 0.0000  plane waves:     981
 k-point 13 :   0.5000 0.5000 0.0000  plane waves:     982
 k-point 14 :   0.5000 0.3333 0.1667  plane waves:     974
 k-point 15 :  -0.3333 0.3333 0.1667  plane waves:     960
 k-point 16 :  -0.3333 0.5000 0.1667  plane waves:     978

 maximum and minimum number of plane-waves per node :       336      300

 maximum number of plane-waves:       982
 maximum index in each direction: 
   IXMAX=    7   IYMAX=    6   IZMAX=    6
   IXMIN=   -7   IYMIN=   -7   IZMIN=   -7


 parallel 3D FFT for wavefunctions:
    minimum data exchange during FFTs selected (reduces bandwidth)
 parallel 3D FFT for charge:
    minimum data exchange during FFTs selected (reduces bandwidth)


 total amount of memory used by VASP MPI-rank0    42603. kBytes
=======================================================================

   base      :      30000. kBytes
   nonl-proj :        784. kBytes
   fftplans  :        600. kBytes
   grid      :       1402. kBytes
   one-center:         31. kBytes
   wavefun   :       9786. kBytes
 
     INWAV:  cpu time    0.0000: real time    0.0000
 Broyden mixing: mesh for mixing (old mesh)
   NGX = 13   NGY = 13   NGZ = 13
  (NGX  = 48   NGY  = 48   NGZ  = 48)
  gives a total of   2197 points

 initial charge density was supplied:
 charge density of overlapping atoms calculated
 number of electron      28.0000000 magnetization       0.0000000
 keeping initial charge density in first step


--------------------------------------------------------------------------------------------------------


 Maximum index for augmentation-charges         1486 (set IRDMAX)


--------------------------------------------------------------------------------------------------------


 First call to EWALD:  gamma=   0.499
 Maximum number of real-space cells 3x 3x 3
 Maximum number of reciprocal cells 3x 3x 3

    FEWALD:  cpu time    0.0013: real time    0.0013


--------------------------------------- Iteration      1(   1)  ---------------------------------------


    POTLOK:  cpu time    0.0700: real time    0.1885
    SETDIJ:  cpu time    0.0015: real time    0.0017
    TRIAL :  cpu time    0.1794: real time    0.1819
    CORREC:  cpu time    0.0004: real time    0.0004
    --------------------------------------------
      LOOP:  cpu time    0.2549: real time    0.3797

 eigenvalue-minimisations  :  5859
 total energy-change (2. order) : 0.2501366E+03  (-0.1125611E+04)
 number of electron      28.0000000 magnetization       0.0000000
 augmentation part       28.0000000 magnetization       0.0000000

 Free energy of the ion-electron system (eV)
  ---------------------------------------------------
  alpha Z        PSCENC =       131.13230232
  Ewald energy   TEWEN  =     -2699.00129049
  -Hartree energ DENC   =     -1507.28522658
  -exchange      EXHF   =         0.00000000
  -V(xc)+E(xc)   XCENC  =       146.18216515
  PAW double counting   =      3673.23166740    -4543.37832830
  entropy T*S    EENTRO =        -0.00081424
  eigenvalues    EBANDS =      -143.20894399
  atomic energy  EATOM  =      5192.46507749
  ---------------------------------------------------
  free energy    TOTEN  =       250.13660876 eV

  energy without entropy =      250.13742300  energy(sigma->0) =      250.13701588


--------------------------------------------------------------------------------------------------------




--------------------------------------- Iteration      1(   2)  ---------------------------------------


    TRIAL :  cpu time    0.1294: real time    0.1308
    CORREC:  cpu time    0.0004: real time    0.0004
    --------------------------------------------
      LOOP:  cpu time    0.1301: real time    0.1315

 eigenvalue-minimisations  :  4743
 total energy-change (2. order) :-0.1988697E+03  (-0.1806343E+03)
 number of electron      28.0000000 magnetization       0.0000000
 augmentation part       28.0000000 magnetization       0.0000000

 Free energy of the ion-electron system (eV)
  ---------------------------------------------------
  alpha Z        PSCENC =       131.13230232
  Ewald energy   TEWEN  =     -2699.00129049
  -Hartree energ DENC   =     -1507.28522658
  -exchange      EXHF   =         0.00000000
  -V(xc)+E(xc)   XCENC  =       146.18216515
  PAW double counting   =      3673.23166740    -4543.37832830
  entropy T*S    EENTRO =        -0.00060620
  eigenvalues    EBANDS =      -342.07886712
  atomic energy  EATOM  =      5192.46507749
  ---------------------------------------------------
  free energy    TOTEN  =        51.26689366 eV

  energy without entropy =       51.26749986  energy(sigma->0) =       51.26719676


--------------------------------------------------------------------------------------------------------




--------------------------------------- Iteration      1(   3)  ---------------------------------------


    TRIAL :  cpu time    0.1309: real time    0.1325
    CORREC:  cpu time    0.0002: real time    0.0002
    --------------------------------------------
      LOOP:  cpu time    0.1312: real time    0.1328

 eigenvalue-minimisations  :  5256
 total energy-change (2. order) :-0.5441766E+02  (-0.5262539E+02)
 number of electron      28.0000000 magnetization       0.0000000
 augmentation part       28.0000000 magnetization       0.0000000

 Free energy of the ion-electron system (eV)
  ---------------------------------------------------
  alpha Z        PSCENC =       131.13230232
  Ewald energy   TEWEN  =     -2699.00129049
  -Hartree energ DENC   =     -1507.28522658
  -exchange      EXHF   =         0.00000000
  -V(xc)+E(xc)   XCENC  =       146.18216515
  PAW double counting   =      3673.23166740    -4543.37832830
  entropy T*S    EENTRO =        -0.00000000
  eigenvalues    EBANDS =      -396.49713755
  atomic energy  EATOM  =      5192.46507749
  ---------------------------------------------------
  free energy    TOTEN  =        -3.15077056 eV

  energy without entropy =       -3.15077056  energy(sigma->0) =       -3.15077056


--------------------------------------------------------------------------------------------------------




--------------------------------------- Iteration      1(   4)  ---------------------------------------


    TRIAL :  cpu time    0.1188: real time    0.1200
    CORREC:  cpu time    0.0002: real time    0.0002
    --------------------------------------------
      LOOP:  cpu time    0.1192: real time    0.1203

 eigenvalue-minimisations  :  5148
 total energy-change (2. order) :-0.7700630E+01  (-0.7597135E+01)
 number of electron      28.0000000 magnetization       0.0000000
 augmentation part       28.0000000 magnetization       0.0000000

 Free energy of the ion-electron system (eV)
  ---------------------------------------------------
  alpha Z        PSCENC =       131.13230232
  Ewald energy   TEWEN  =     -2699.00129049
  -Hartree energ DENC   =     -1507.28522658
  -exchange      EXHF   =         0.00000000
  -V(xc)+E(xc)   XCENC  =       146.18216515
  PAW double counting   =      3673.23166740    -4543.37832830
  entropy T*S    EENTRO =        -0.00000000
  eigenvalues    EBANDS =      -404.19776784
  atomic energy  EATOM  =      5192.46507749
  ---------------------------------------------------
  free energy    TOTEN  =       -10.85140086 eV

  energy without entropy =      -10.85140086  energy(sigma->0) =      -10.85140086


--------------------------------------------------------------------------------------------------------




--------------------------------------- Iteration      1(   5)  ---------------------------------------


    TRIAL :  cpu time    0.1400: real time    0.1412
    CORREC:  cpu time    0.0002: real time    0.0002
    CHARGE:  cpu time    0.0297: real time    0.0640
    --------------------------------------------
      LOOP:  cpu time    0.1700: real time    0.2055

 eigenvalue-minimisations  :  5976
 total energy-change (2. order) :-0.7566727E+00  (-0.7548791E+00)
 number of electron      27.9999915 magnetization       0.0000000
 augmentation part       16.8583641 magnetization      -0.0012551

 Free energy of the ion-electron system (eV)
  ---------------------------------------------------
  alpha Z        PSCENC =       131.13230232
  Ewald energy   TEWEN  =     -2699.00129049
  -Hartree energ DENC   =     -1507.28522658
  -exchange      EXHF   =         0.00000000
  -V(xc)+E(xc)   XCENC  =       146.18216515
  PAW double counting   =      3673.23166740    -4543.37832830
  entropy T*S    EENTRO =        -0.00000000
  eigenvalues    EBANDS =      -404.95444051
  atomic energy  EATOM  =      5192.46507749
  ---------------------------------------------------
  free energy    TOTEN  =       -11.60807353 eV

  energy without entropy =      -11.60807353  energy(sigma->0) =      -11.60807353


--------------------------------------------------------------------------------------------------------




--------------------------------------- Iteration      1(   6)  ---------------------------------------


    POTLOK:  cpu time    0.0098: real time    0.0099
    SETDIJ:  cpu time    0.0050: real time    0.0050
    TRIAL :  cpu time    0.0638: real time    0.0801
    CORREC:  cpu time    0.0007: real time    0.0007
    CHARGE:  cpu time    0.0081: real time    0.0082
    --------------------------------------------
      LOOP:  cpu time    0.0875: real time    0.1041

 eigenvalue-minimisations  :     0
 total energy-change (2. order) : 0.3237206E+00  (-0.6556695E-01)
 number of electron      27.9999915 magnetization       0.0000000
 augmentation part       16.8566909 magnetization      -0.0006305

 Free energy of the ion-electron system (eV)
  ---------------------------------------------------
  alpha Z        PSCENC =       131.13230232
  Ewald energy   TEWEN  =     -2699.00129049
  -Hartree energ DENC   =     -1513.54755206
  -exchange      EXHF   =         0.00000000
  -V(xc)+E(xc)   XCENC  =       145.98686712
  PAW double counting   =      4882.53821847    -5760.34880225
  entropy T*S    EENTRO =        -0.00000000
  eigenvalues    EBANDS =      -390.50917355
  atomic energy  EATOM  =      5192.46507749
  ---------------------------------------------------
  free energy    TOTEN  =       -11.28435296 eV

  energy without entropy =      -11.28435296  energy(sigma->0) =      -11.28435296


--------------------------------------------------------------------------------------------------------




--------------------------------------- Iteration      1(   7)  ---------------------------------------


    POTLOK:  cpu time    0.0096: real time    0.0097
    SETDIJ:  cpu time    0.0052: real time    0.0052
    TRIAL :  cpu time    0.0623: real time    0.0637
    CORREC:  cpu time    0.0006: real time    0.0006
    CHARGE:  cpu time    0.0064: real time    0.0064
    --------------------------------------------
      LOOP:  cpu time    0.0844: real time    0.0860

 eigenvalue-minimisations  :     0
 total energy-change (2. order) :-0.5076265E-01  (-0.3567895E-01)
 number of electron      27.9999915 magnetization       0.0000000
 augmentation part       16.8579302 magnetization      -0.0001226

 Free energy of the ion-electron system (eV)
  ---------------------------------------------------
  alpha Z        PSCENC =       131.13230232
  Ewald energy   TEWEN  =     -2699.00129049
  -Hartree energ DENC   =     -1512.19212465
  -exchange      EXHF   =         0.00000000
  -V(xc)+E(xc)   XCENC  =       145.94505454
  PAW double counting   =      4840.71843877    -5717.69027446
  entropy T*S    EENTRO =        -0.00000000
  eigenvalues    EBANDS =      -392.71229914
  atomic energy  EATOM  =      5192.46507749
  ---------------------------------------------------
  free energy    TOTEN  =       -11.33511561 eV

  energy without entropy =      -11.33511561  energy(sigma->0) =      -11.33511561


--------------------------------------------------------------------------------------------------------




--------------------------------------- Iteration      1(   8)  ---------------------------------------


    POTLOK:  cpu time    0.0109: real time    0.0110
    SETDIJ:  cpu time    0.0044: real time    0.0044
    TRIAL :  cpu time    0.0599: real time    0.0611
    CORREC:  cpu time    0.0002: real time    0.0002
    CHARGE:  cpu time    0.0067: real time    0.0068
    --------------------------------------------
      LOOP:  cpu time    0.0824: real time    0.0837

 eigenvalue-minimisations  :     0
 total energy-change (2. order) :-0.2439109E-01  (-0.1114038E-01)
 number of electron      27.9999915 magnetization      -0.0000000
 augmentation part       16.8614714 magnetization       0.0000596

 Free energy of the ion-electron system (eV)
  ---------------------------------------------------
  alpha Z        PSCENC =       131.13230232
  Ewald energy   TEWEN  =     -2699.00129049
  -Hartree energ DENC   =     -1510.97056013
  -exchange      EXHF   =         0.00000000
  -V(xc)+E(xc)   XCENC  =       145.91236112
  PAW double counting   =      4795.30062860    -5671.85257095
  entropy T*S    EENTRO =        -0.00000000
  eigenvalues    EBANDS =      -394.34545467
  atomic energy  EATOM  =      5192.46507749
  ---------------------------------------------------
  free energy    TOTEN  =       -11.35950670 eV

  energy without entropy =      -11.35950670  energy(sigma->0) =      -11.35950670


--------------------------------------------------------------------------------------------------------




--------------------------------------- Iteration      1(   9)  ---------------------------------------


    POTLOK:  cpu time    0.0098: real time    0.0099
    SETDIJ:  cpu time    0.0050: real time    0.0051
    TRIAL :  cpu time    0.0569: real time    0.0580
    CORREC:  cpu time    0.0002: real time    0.0002
    CHARGE:  cpu time    0.0056: real time    0.0057
    --------------------------------------------
      LOOP:  cpu time    0.0780: real time    0.0792

 eigenvalue-minimisations  :     0
 total energy-change (2. order) :-0.7431696E-02  (-0.4150779E-02)
 number of electron      27.9999915 magnetization      -0.0000000
 augmentation part       16.8645337 magnetization       0.0000505

 Free energy of the ion-electron system (eV)
  ---------------------------------------------------
  alpha Z        PSCENC =       131.13230232
  Ewald energy   TEWEN  =     -2699.00129049
  -Hartree energ DENC   =     -1510.25832596
  -exchange      EXHF   =         0.00000000
  -V(xc)+E(xc)   XCENC  =       145.89857145
  PAW double counting   =      4761.15302044    -5637.79358040
  entropy T*S    EENTRO =        -0.00000000
  eigenvalues    EBANDS =      -394.96271323
  atomic energy  EATOM  =      5192.46507749
  ---------------------------------------------------
  free energy    TOTEN  =       -11.36693839 eV

  energy without entropy =      -11.36693839  energy(sigma->0) =      -11.36693839


--------------------------------------------------------------------------------------------------------




--------------------------------------- Iteration      1(  10)  ---------------------------------------


    POTLOK:  cpu time    0.0098: real time    0.0099
    SETDIJ:  cpu time    0.0053: real time    0.0053
    TRIAL :  cpu time    0.0578: real time    0.0589
    CORREC:  cpu time    0.0002: real time    0.0002
    CHARGE:  cpu time    0.0056: real time    0.0057
    --------------------------------------------
      LOOP:  cpu time    0.0791: real time    0.0803

 eigenvalue-minimisations  :     0
 total energy-change (2. order) :-0.2981969E-02  (-0.2006650E-02)
 number of electron      27.9999915 magnetization      -0.0000000
 augmentation part       16.8661557 magnetization       0.0000084

 Free energy of the ion-electron system (eV)
  ---------------------------------------------------
  alpha Z        PSCENC =       131.13230232
  Ewald energy   TEWEN  =     -2699.00129049
  -Hartree energ DENC   =     -1509.83723223
  -exchange      EXHF   =         0.00000000
  -V(xc)+E(xc)   XCENC  =       145.89213557
  PAW double counting   =      4742.46870036    -5619.27235924
  entropy T*S    EENTRO =        -0.00000000
  eigenvalues    EBANDS =      -395.21725414
  atomic energy  EATOM  =      5192.46507749
  ---------------------------------------------------
  free energy    TOTEN  =       -11.36992036 eV

  energy without entropy =      -11.36992036  energy(sigma->0) =      -11.36992036


--------------------------------------------------------------------------------------------------------




--------------------------------------- Iteration      1(  11)  ---------------------------------------


    POTLOK:  cpu time    0.0098: real time    0.0099
    SETDIJ:  cpu time    0.0052: real time    0.0053
    TRIAL :  cpu time    0.0567: real time    0.0577
    CORREC:  cpu time    0.0002: real time    0.0002
    CHARGE:  cpu time    0.0058: real time    0.0058
    --------------------------------------------
      LOOP:  cpu time    0.0781: real time    0.0793

 eigenvalue-minimisations  :     0
 total energy-change (2. order) :-0.1488718E-02  (-0.8767979E-03)
 number of electron      27.9999915 magnetization       0.0000000
 augmentation part       16.8669432 magnetization      -0.0000061

 Free energy of the ion-electron system (eV)
  ---------------------------------------------------
  alpha Z        PSCENC =       131.13230232
  Ewald energy   TEWEN  =     -2699.00129049
  -Hartree energ DENC   =     -1509.51732002
  -exchange      EXHF   =         0.00000000
  -V(xc)+E(xc)   XCENC  =       145.88543118
  PAW double counting   =      4736.73837424    -5613.57114138
  entropy T*S    EENTRO =        -0.00000000
  eigenvalues    EBANDS =      -395.50284243
  atomic energy  EATOM  =      5192.46507749
  ---------------------------------------------------
  free energy    TOTEN  =       -11.37140908 eV

  energy without entropy =      -11.37140908  energy(sigma->0) =      -11.37140908


--------------------------------------------------------------------------------------------------------




--------------------------------------- Iteration      1(  12)  ---------------------------------------


    POTLOK:  cpu time    0.0097: real time    0.0098
    SETDIJ:  cpu time    0.0051: real time    0.0051
    TRIAL :  cpu time    0.0562: real time    0.0573
    CORREC:  cpu time    0.0002: real time    0.0002
    CHARGE:  cpu time    0.0057: real time    0.0057
    --------------------------------------------
      LOOP:  cpu time    0.0772: real time    0.0784

 eigenvalue-minimisations  :     0
 total energy-change (2. order) :-0.6213526E-03  (-0.2882896E-03)
 number of electron      27.9999915 magnetization       0.0000000
 augmentation part       16.8675720 magnetization      -0.0000011

 Free energy of the ion-electron system (eV)
  ---------------------------------------------------
  alpha Z        PSCENC =       131.13230232
  Ewald energy   TEWEN  =     -2699.00129049
  -Hartree energ DENC   =     -1509.27688412
  -exchange      EXHF   =         0.00000000
  -V(xc)+E(xc)   XCENC  =       145.87904143
  PAW double counting   =      4738.10052461    -5614.89217313
  entropy T*S    EENTRO =        -0.00000000
  eigenvalues    EBANDS =      -395.77862855
  atomic energy  EATOM  =      5192.46507749
  ---------------------------------------------------
  free energy    TOTEN  =       -11.37203043 eV

  energy without entropy =      -11.37203043  energy(sigma->0) =      -11.37203043


--------------------------------------------------------------------------------------------------------




--------------------------------------- Iteration      1(  13)  ---------------------------------------


    POTLOK:  cpu time    0.0098: real time    0.0099
    SETDIJ:  cpu time    0.0052: real time    0.0053
    TRIAL :  cpu time    0.0569: real time    0.0580
    CORREC:  cpu time    0.0002: real time    0.0002
    CHARGE:  cpu time    0.0057: real time    0.0057
    --------------------------------------------
      LOOP:  cpu time    0.0782: real time    0.0794

 eigenvalue-minimisations  :     0
 total energy-change (2. order) :-0.1902580E-03  (-0.8334405E-04)
 number of electron      27.9999915 magnetization      -0.0000000
 augmentation part       16.8681815 magnetization       0.0000047

 Free energy of the ion-electron system (eV)
  ---------------------------------------------------
  alpha Z        PSCENC =       131.13230232
  Ewald energy   TEWEN  =     -2699.00129049
  -Hartree energ DENC   =     -1509.13482123
  -exchange      EXHF   =         0.00000000
  -V(xc)+E(xc)   XCENC  =       145.87508559
  PAW double counting   =      4741.63829507    -5618.41419256
  entropy T*S    EENTRO =        -0.00000000
  eigenvalues    EBANDS =      -395.93267689
  atomic energy  EATOM  =      5192.46507749
  ---------------------------------------------------
  free energy    TOTEN  =       -11.37222069 eV

  energy without entropy =      -11.37222069  energy(sigma->0) =      -11.37222069


--------------------------------------------------------------------------------------------------------




--------------------------------------- Iteration      1(  14)  ---------------------------------------


    POTLOK:  cpu time    0.0097: real time    0.0098
    SETDIJ:  cpu time    0.0050: real time    0.0051
    TRIAL :  cpu time    0.0564: real time    0.0574
    CORREC:  cpu time    0.0002: real time    0.0002
    EDDIAG:  cpu time    0.0291: real time    0.0296
    CHARGE:  cpu time    0.0058: real time    0.0059
    --------------------------------------------
      LOOP:  cpu time    0.1066: real time    0.1083

 eigenvalue-minimisations  :     0
 total energy-change (2. order) :-0.5328684E-04  (-0.2819707E-04)
 number of electron      27.9999915 magnetization      -0.0000000
 augmentation part       16.8686331 magnetization       0.0000041

 Free energy of the ion-electron system (eV)
  ---------------------------------------------------
  alpha Z        PSCENC =       131.13230232
  Ewald energy   TEWEN  =     -2699.00129049
  -Hartree energ DENC   =     -1509.07505060
  -exchange      EXHF   =         0.00000000
  -V(xc)+E(xc)   XCENC  =       145.87366665
  PAW double counting   =      4744.67189701    -5621.47262919
  entropy T*S    EENTRO =        -0.00000000
  eigenvalues    EBANDS =      -395.96624717
  atomic energy  EATOM  =      5192.46507749
  ---------------------------------------------------
  free energy    TOTEN  =       -11.37227398 eV

  energy without entropy =      -11.37227398  energy(sigma->0) =      -11.37227398


--------------------------------------------------------------------------------------------------------


  average scaling for gradient   0.8510


 average (electrostatic) potential at core
  the test charge radii are     0.9911
  (the norm of the test charge is              1.0000)
       1 -74.1580       2 -74.1580
 
 
 
 E-fermi :   5.0284     XC(G=0):  -9.9491     alpha+bet :-10.5537


 spin component 1

 k-point     1 :       0.0000    0.0000    0.0000
  band No.  band energies     occupation 
      1     -19.6491      1.00000
      2     -19.6491      1.00000
      3     -19.6491      1.00000
      4     -19.6131      1.00000
      5     -19.6131      1.00000
      6     -19.3947      1.00000
      7     -19.3947      1.00000
      8     -19.3947      1.00000
      9     -19.3804      1.00000
     10     -19.3804      1.00000
     11      -7.7003      1.00000
     12       4.7780      1.00000
     13       4.7780      1.00000
     14       4.7780      1.00000
     15       5.3362      0.00000
     16       7.4466      0.00000
     17       7.4466      0.00000
     18       7.4466      0.00000
     19      11.6278      0.00000
     20      14.6731      0.00000
     21      14.6731      0.00000
     22      15.9412      0.00000
     23      15.9412      0.00000
     24      15.9412      0.00000
     25      19.0577      0.00000
     26      30.3736      0.00000
     27      30.3736      0.00000
     28      30.3736      0.00000
     29      31.2968      0.00000
     30      31.2969      0.00000
     31      31.2969      0.00000
     32      31.8638      0.00000
     33      31.8638      0.00000
     34      31.8638      0.00000
     35      32.8955      0.00000
     36      32.8955      0.00000
     37      39.9232      0.00000
     38      44.3109      0.00000
     39      44.7873      0.00000
     40      44.8822      0.00000
     41      45.0242      0.00000
     42      45.0995      0.00000
     43      45.3810      0.00000
     44      45.7292      0.00000
     45      46.1332      0.00000
     46      46.2452      0.00000
     47      46.3762      0.00000
     48      46.5460      0.00000
     49      46.6591      0.00000
     50      46.8420      0.00000
     51      47.1012      0.00000
     52      47.4881      0.00000
     53      47.6588      0.00000
     54      47.8456      0.00000

 k-point     2 :       0.1667    0.0000    0.0000
  band No.  band energies     occupation 
      1     -19.6616      1.00000
      2     -19.6616      1.00000
      3     -19.6448      1.00000
      4     -19.5949      1.00000
      5     -19.5949      1.00000
      6     -19.4122      1.00000
      7     -19.4122      1.00000
      8     -19.3997      1.00000
      9     -19.3659      1.00000
     10     -19.3659      1.00000
     11      -7.3660      1.00000
     12       1.8118      1.00000
     13       4.2553      1.00000
     14       4.2554      1.00000
     15       6.0512      0.00000
     16       8.1415      0.00000
     17       8.1415      0.00000
     18       9.1371      0.00000
     19      12.9492      0.00000
     20      13.5196      0.00000
     21      13.5196      0.00000
     22      15.1598      0.00000
     23      18.4199      0.00000
     24      18.4199      0.00000
     25      21.3078      0.00000
     26      25.9726      0.00000
     27      25.9726      0.00000
     28      26.1172      0.00000
     29      31.0166      0.00000
     30      31.0166      0.00000
     31      31.5791      0.00000
     32      32.6524      0.00000
     33      32.6524      0.00000
     34      35.0457      0.00000
     35      38.1163      0.00000
     36      38.1212      0.00000
     37      38.1234      0.00000
     38      39.1820      0.00000
     39      39.1823      0.00000
     40      41.6690      0.00000
     41      41.8681      0.00000
     42      41.9025      0.00000
     43      42.5799      0.00000
     44      42.5977      0.00000
     45      42.6513      0.00000
     46      42.7408      0.00000
     47      44.9277      0.00000
     48      45.8293      0.00000
     49      45.9467      0.00000
     50      46.1315      0.00000
     51      47.9847      0.00000
     52      48.1993      0.00000
     53      49.8820      0.00000
     54      50.8207      0.00000

 k-point     3 :       0.3333    0.0000    0.0000
  band No.  band energies     occupation 
      1     -19.6720      1.00000
      2     -19.6720      1.00000
      3     -19.6355      1.00000
      4     -19.5752      1.00000
      5     -19.5752      1.00000
      6     -19.4269      1.00000
      7     -19.4269      1.00000
      8     -19.4101      1.00000
      9     -19.3552      1.00000
     10     -19.3552      1.00000
     11      -6.4339      1.00000
     12      -1.1175      1.00000
     13       3.6003      1.00000
     14       3.6003      1.00000
     15       5.5350      0.00000
     16       8.7189      0.00000
     17       8.7189      0.00000
     18      12.0101      0.00000
     19      13.0313      0.00000
     20      14.1122      0.00000
     21      14.1122      0.00000
     22      17.4419      0.00000
     23      21.0463      0.00000
     24      21.0463      0.00000
     25      22.1875      0.00000
     26      22.4615      0.00000
     27      22.4615      0.00000
     28      25.5611      0.00000
     29      31.4404      0.00000
     30      31.9160      0.00000
     31      31.9160      0.00000
     32      32.2904      0.00000
     33      32.8523      0.00000
     34      32.8523      0.00000
     35      33.4661      0.00000
     36      33.4661      0.00000
     37      36.4162      0.00000
     38      38.0497      0.00000
     39      38.9447      0.00000
     40      38.9455      0.00000
     41      39.2929      0.00000
     42      39.2930      0.00000
     43      39.7338      0.00000
     44      40.9096      0.00000
     45      44.0959      0.00000
     46      44.9352      0.00000
     47      45.0232      0.00000
     48      45.8131      0.00000
     49      45.8301      0.00000
     50      47.1801      0.00000
     51      47.2378      0.00000
     52      47.5968      0.00000
     53      48.7698      0.00000
     54      53.0146      0.00000

 k-point     4 :       0.5000    0.0000    0.0000
  band No.  band energies     occupation 
      1     -19.6745      1.00000
      2     -19.6745      1.00000
      3     -19.6306      1.00000
      4     -19.5698      1.00000
      5     -19.5698      1.00000
      6     -19.4302      1.00000
      7     -19.4302      1.00000
      8     -19.4154      1.00000
      9     -19.3524      1.00000
     10     -19.3524      1.00000
     11      -5.5994      1.00000
     12      -2.6443      1.00000
     13       3.3567      1.00000
     14       3.3567      1.00000
     15       5.3222      0.00000
     16       8.7152      0.00000
     17       8.7152      0.00000
     18      12.2190      0.00000
     19      15.6137      0.00000
     20      16.1107      0.00000
     21      16.3041      0.00000
     22      16.3041      0.00000
     23      17.6985      0.00000
     24      17.6985      0.00000
     25      23.9629      0.00000
     26      26.2841      0.00000
     27      26.8447      0.00000
     28      26.8447      0.00000
     29      27.6388      0.00000
     30      27.6388      0.00000
     31      30.7004      0.00000
     32      31.2761      0.00000
     33      32.6091      0.00000
     34      32.6091      0.00000
     35      32.7802      0.00000
     36      34.0479      0.00000
     37      34.0479      0.00000
     38      37.6580      0.00000
     39      37.6580      0.00000
     40      37.8112      0.00000
     41      37.8112      0.00000
     42      38.4836      0.00000
     43      38.5428      0.00000
     44      39.5193      0.00000
     45      43.7222      0.00000
     46      45.7212      0.00000
     47      45.7477      0.00000
     48      46.3765      0.00000
     49      46.4396      0.00000
     50      47.6163      0.00000
     51      52.4515      0.00000
     52      53.0664      0.00000
     53      53.8094      0.00000
     54      54.5012      0.00000

 k-point     5 :       0.1667    0.1667    0.0000
  band No.  band energies     occupation 
      1     -19.6591      1.00000
      2     -19.6591      1.00000
      3     -19.6589      1.00000
      4     -19.5968      1.00000
      5     -19.5740      1.00000
      6     -19.4473      1.00000
      7     -19.3954      1.00000
      8     -19.3795      1.00000
      9     -19.3795      1.00000
     10     -19.3631      1.00000
     11      -7.2516      1.00000
     12       1.8657      1.00000
     13       3.4937      1.00000
     14       3.4937      1.00000
     15       6.5524      0.00000
     16       7.7677      0.00000
     17       9.3014      0.00000
     18       9.3014      0.00000
     19      12.0386      0.00000
     20      13.5301      0.00000
     21      15.1489      0.00000
     22      16.8972      0.00000
     23      16.8972      0.00000
     24      17.8287      0.00000
     25      22.7194      0.00000
     26      25.5436      0.00000
     27      25.5436      0.00000
     28      26.7053      0.00000
     29      26.9061      0.00000
     30      31.3912      0.00000
     31      31.3912      0.00000
     32      32.3086      0.00000
     33      35.0580      0.00000
     34      37.6181      0.00000
     35      37.6871      0.00000
     36      37.6875      0.00000
     37      38.0187      0.00000
     38      38.0208      0.00000
     39      38.3906      0.00000
     40      38.8911      0.00000
     41      41.5760      0.00000
     42      42.1968      0.00000
     43      42.2161      0.00000
     44      42.9428      0.00000
     45      43.6071      0.00000
     46      43.7004      0.00000
     47      44.5363      0.00000
     48      44.7669      0.00000
     49      45.0936      0.00000
     50      48.3987      0.00000
     51      48.7080      0.00000
     52      49.1385      0.00000
     53      49.9130      0.00000
     54      50.7418      0.00000

 k-point     6 :       0.3333    0.1667    0.0000
  band No.  band energies     occupation 
      1     -19.6800      1.00000
      2     -19.6696      1.00000
      3     -19.6384      1.00000
      4     -19.5755      1.00000
      5     -19.5476      1.00000
      6     -19.4735      1.00000
      7     -19.4181      1.00000
      8     -19.3931      1.00000
      9     -19.3611      1.00000
     10     -19.3471      1.00000
     11      -6.4981      1.00000
     12      -0.4066      1.00000
     13       2.5456      1.00000
     14       2.8735      1.00000
     15       6.7701      0.00000
     16       8.1036      0.00000
     17       9.9637      0.00000
     18      10.2069      0.00000
     19      13.5489      0.00000
     20      14.8250      0.00000
     21      15.4477      0.00000
     22      17.1669      0.00000
     23      19.7471      0.00000
     24      21.0210      0.00000
     25      21.3904      0.00000
     26      21.5487      0.00000
     27      25.7531      0.00000
     28      26.5658      0.00000
     29      26.8866      0.00000
     30      28.3324      0.00000
     31      31.3376      0.00000
     32      32.1234      0.00000
     33      34.3653      0.00000
     34      34.4295      0.00000
     35      34.6254      0.00000
     36      35.7190      0.00000
     37      37.2347      0.00000
     38      37.5223      0.00000
     39      38.7095      0.00000
     40      39.2226      0.00000
     41      39.9610      0.00000
     42      40.0469      0.00000
     43      40.8932      0.00000
     44      41.8526      0.00000
     45      43.0854      0.00000
     46      44.0760      0.00000
     47      44.9918      0.00000
     48      46.4952      0.00000
     49      46.8001      0.00000
     50      47.0583      0.00000
     51      48.5316      0.00000
     52      48.9938      0.00000
     53      49.7144      0.00000
     54      51.2319      0.00000

 k-point     7 :       0.5000    0.1667    0.0000
  band No.  band energies     occupation 
      1     -19.6914      1.00000
      2     -19.6780      1.00000
      3     -19.6138      1.00000
      4     -19.5558      1.00000
      5     -19.5470      1.00000
      6     -19.4680      1.00000
      7     -19.4408      1.00000
      8     -19.4205      1.00000
      9     -19.3478      1.00000
     10     -19.3345      1.00000
     11      -5.4323      1.00000
     12      -2.4139      1.00000
     13       1.7302      1.00000
     14       2.7994      1.00000
     15       6.6542      0.00000
     16       8.7786      0.00000
     17       9.9401      0.00000
     18      11.4327      0.00000
     19      14.3379      0.00000
     20      16.1442      0.00000
     21      16.3467      0.00000
     22      16.9075      0.00000
     23      18.2275      0.00000
     24      21.6136      0.00000
     25      23.2772      0.00000
     26      24.1469      0.00000
     27      25.5431      0.00000
     28      26.4362      0.00000
     29      27.6733      0.00000
     30      28.5420      0.00000
     31      28.9411      0.00000
     32      31.1190      0.00000
     33      31.1904      0.00000
     34      32.5421      0.00000
     35      32.7992      0.00000
     36      32.9179      0.00000
     37      34.2220      0.00000
     38      35.9103      0.00000
     39      37.4655      0.00000
     40      38.1315      0.00000
     41      38.9106      0.00000
     42      39.5834      0.00000
     43      41.6301      0.00000
     44      42.6860      0.00000
     45      42.7948      0.00000
     46      44.5787      0.00000
     47      44.9265      0.00000
     48      47.4059      0.00000
     49      49.0084      0.00000
     50      50.1289      0.00000
     51      50.4196      0.00000
     52      51.1909      0.00000
     53      51.9132      0.00000
     54      54.1972      0.00000

 k-point     8 :      -0.3333    0.1667    0.0000
  band No.  band energies     occupation 
      1     -19.6879      1.00000
      2     -19.6815      1.00000
      3     -19.6095      1.00000
      4     -19.5680      1.00000
      5     -19.5476      1.00000
      6     -19.4546      1.00000
      7     -19.4370      1.00000
      8     -19.4302      1.00000
      9     -19.3428      1.00000
     10     -19.3400      1.00000
     11      -5.7700      1.00000
     12      -1.8689      1.00000
     13       1.5152      1.00000
     14       3.2851      1.00000
     15       6.7953      0.00000
     16       9.0513      0.00000
     17       9.3909      0.00000
     18      11.7362      0.00000
     19      13.4815      0.00000
     20      14.2022      0.00000
     21      16.1773      0.00000
     22      17.8583      0.00000
     23      19.8105      0.00000
     24      21.5824      0.00000
     25      21.7894      0.00000
     26      23.3157      0.00000
     27      26.0639      0.00000
     28      27.4565      0.00000
     29      28.0463      0.00000
     30      28.5031      0.00000
     31      29.3436      0.00000
     32      29.4719      0.00000
     33      32.2208      0.00000
     34      32.5759      0.00000
     35      32.9890      0.00000
     36      33.3312      0.00000
     37      35.2296      0.00000
     38      37.0798      0.00000
     39      38.3171      0.00000
     40      38.9281      0.00000
     41      39.3476      0.00000
     42      39.4067      0.00000
     43      41.6142      0.00000
     44      41.8581      0.00000
     45      42.0199      0.00000
     46      44.8574      0.00000
     47      44.9795      0.00000
     48      45.9209      0.00000
     49      46.4684      0.00000
     50      48.2825      0.00000
     51      51.0485      0.00000
     52      51.9577      0.00000
     53      52.9983      0.00000
     54      53.9282      0.00000

 k-point     9 :      -0.1667    0.1667    0.0000
  band No.  band energies     occupation 
      1     -19.6759      1.00000
      2     -19.6710      1.00000
      3     -19.6324      1.00000
      4     -19.5855      1.00000
      5     -19.5667      1.00000
      6     -19.4411      1.00000
      7     -19.4260      1.00000
      8     -19.3965      1.00000
      9     -19.3634      1.00000
     10     -19.3488      1.00000
     11      -6.8223      1.00000
     12       0.2965      1.00000
     13       2.2694      1.00000
     14       4.0729      1.00000
     15       6.9710      0.00000
     16       8.4684      0.00000
     17       8.7526      0.00000
     18      10.1175      0.00000
     19      12.4830      0.00000
     20      14.4484      0.00000
     21      14.4959      0.00000
     22      17.0625      0.00000
     23      18.2120      0.00000
     24      20.9943      0.00000
     25      21.7882      0.00000
     26      24.0290      0.00000
     27      25.5806      0.00000
     28      26.2613      0.00000
     29      26.7444      0.00000
     30      28.3438      0.00000
     31      31.7102      0.00000
     32      33.8855      0.00000
     33      34.8068      0.00000
     34      35.1471      0.00000
     35      35.7090      0.00000
     36      35.9262      0.00000
     37      38.2763      0.00000
     38      38.5981      0.00000
     39      39.0508      0.00000
     40      39.4380      0.00000
     41      39.6259      0.00000
     42      40.6502      0.00000
     43      41.5180      0.00000
     44      41.5199      0.00000
     45      42.2131      0.00000
     46      42.2984      0.00000
     47      44.2716      0.00000
     48      44.4160      0.00000
     49      46.8648      0.00000
     50      47.1242      0.00000
     51      47.6892      0.00000
     52      48.6258      0.00000
     53      49.5359      0.00000
     54      51.7865      0.00000

 k-point    10 :       0.3333    0.3333    0.0000
  band No.  band energies     occupation 
      1     -19.6762      1.00000
      2     -19.6762      1.00000
      3     -19.6446      1.00000
      4     -19.5527      1.00000
      5     -19.5241      1.00000
      6     -19.5050      1.00000
      7     -19.4364      1.00000
      8     -19.3814      1.00000
      9     -19.3511      1.00000
     10     -19.3511      1.00000
     11      -5.9309      1.00000
     12      -1.1483      1.00000
     13       2.1661      1.00000
     14       2.1661      1.00000
     15       5.6880      0.00000
     16       7.0193      0.00000
     17      12.2371      0.00000
     18      12.2371      0.00000
     19      13.5599      0.00000
     20      16.5812      0.00000
     21      16.8774      0.00000
     22      19.7865      0.00000
     23      19.7865      0.00000
     24      20.3273      0.00000
     25      20.8045      0.00000
     26      20.8045      0.00000
     27      22.3605      0.00000
     28      23.3540      0.00000
     29      29.3713      0.00000
     30      30.4930      0.00000
     31      30.5611      0.00000
     32      30.5611      0.00000
     33      31.6395      0.00000
     34      32.7549      0.00000
     35      32.7549      0.00000
     36      33.7458      0.00000
     37      36.9084      0.00000
     38      38.8827      0.00000
     39      39.0214      0.00000
     40      39.0228      0.00000
     41      41.8025      0.00000
     42      41.8034      0.00000
     43      42.6306      0.00000
     44      43.1853      0.00000
     45      43.4214      0.00000
     46      45.1463      0.00000
     47      45.1798      0.00000
     48      45.3531      0.00000
     49      45.4506      0.00000
     50      45.8432      0.00000
     51      45.9076      0.00000
     52      46.2503      0.00000
     53      47.8297      0.00000
     54      52.8851      0.00000

 k-point    11 :       0.5000    0.3333    0.0000
  band No.  band energies     occupation 
      1     -19.6939      1.00000
      2     -19.6825      1.00000
      3     -19.6096      1.00000
      4     -19.5432      1.00000
      5     -19.5256      1.00000
      6     -19.4843      1.00000
      7     -19.4650      1.00000
      8     -19.4191      1.00000
      9     -19.3407      1.00000
     10     -19.3301      1.00000
     11      -4.8603      1.00000
     12      -2.6431      1.00000
     13       1.0612      1.00000
     14       2.0048      1.00000
     15       6.0907      0.00000
     16       7.6880      0.00000
     17      12.0126      0.00000
     18      12.5703      0.00000
     19      15.4221      0.00000
     20      16.8128      0.00000
     21      17.0047      0.00000
     22      18.9311      0.00000
     23      19.1013      0.00000
     24      21.4599      0.00000
     25      22.6170      0.00000
     26      22.8519      0.00000
     27      23.6594      0.00000
     28      24.6456      0.00000
     29      25.3785      0.00000
     30      27.8547      0.00000
     31      28.0543      0.00000
     32      29.0230      0.00000
     33      30.6759      0.00000
     34      32.6147      0.00000
     35      33.5497      0.00000
     36      34.1809      0.00000
     37      36.1199      0.00000
     38      36.5854      0.00000
     39      38.0278      0.00000
     40      38.7780      0.00000
     41      39.0724      0.00000
     42      40.3941      0.00000
     43      41.7338      0.00000
     44      42.2229      0.00000
     45      43.3626      0.00000
     46      45.2204      0.00000
     47      46.0457      0.00000
     48      46.9211      0.00000
     49      47.2464      0.00000
     50      48.7510      0.00000
     51      49.7059      0.00000
     52      51.8482      0.00000
     53      52.2684      0.00000
     54      53.1146      0.00000

 k-point    12 :      -0.3333    0.3333    0.0000
  band No.  band energies     occupation 
      1     -19.7025      1.00000
      2     -19.6854      1.00000
      3     -19.5936      1.00000
      4     -19.5211      1.00000
      5     -19.5151      1.00000
      6     -19.5007      1.00000
      7     -19.4811      1.00000
      8     -19.4356      1.00000
      9     -19.3373      1.00000
     10     -19.3221      1.00000
     11      -4.7175      1.00000
     12      -2.7967      1.00000
     13       0.3551      1.00000
     14       2.4556      1.00000
     15       6.4874      0.00000
     16      10.7453      0.00000
     17      11.3744      0.00000
     18      11.3762      0.00000
     19      12.2715      0.00000
     20      14.0934      0.00000
     21      18.6046      0.00000
     22      19.0100      0.00000
     23      20.8927      0.00000
     24      22.2429      0.00000
     25      23.1867      0.00000
     26      23.9568      0.00000
     27      23.9628      0.00000
     28      26.3293      0.00000
     29      27.1141      0.00000
     30      27.5172      0.00000
     31      27.5759      0.00000
     32      27.9492      0.00000
     33      30.9049      0.00000
     34      31.5269      0.00000
     35      31.6833      0.00000
     36      33.3946      0.00000
     37      33.4327      0.00000
     38      36.2658      0.00000
     39      38.3242      0.00000
     40      39.1902      0.00000
     41      39.2788      0.00000
     42      39.8886      0.00000
     43      40.2161      0.00000
     44      40.5772      0.00000
     45      45.8941      0.00000
     46      47.0531      0.00000
     47      47.6509      0.00000
     48      48.7681      0.00000
     49      48.8670      0.00000
     50      50.0995      0.00000
     51      50.3131      0.00000
     52      51.5864      0.00000
     53      52.5154      0.00000
     54      53.8134      0.00000

 k-point    13 :       0.5000    0.5000    0.0000
  band No.  band energies     occupation 
      1     -19.6839      1.00000
      2     -19.6839      1.00000
      3     -19.5964      1.00000
      4     -19.5964      1.00000
      5     -19.4940      1.00000
      6     -19.4940      1.00000
      7     -19.4342      1.00000
      8     -19.4342      1.00000
      9     -19.3378      1.00000
     10     -19.3378      1.00000
     11      -3.8320      1.00000
     12      -3.8320      1.00000
     13       1.6911      1.00000
     14       1.6911      1.00000
     15       5.8038      0.00000
     16       5.8038      0.00000
     17      14.3970      0.00000
     18      14.3970      0.00000
     19      16.6378      0.00000
     20      16.6378      0.00000
     21      18.0379      0.00000
     22      18.0379      0.00000
     23      18.9819      0.00000
     24      18.9819      0.00000
     25      24.2876      0.00000
     26      24.2876      0.00000
     27      24.3280      0.00000
     28      24.3280      0.00000
     29      24.6390      0.00000
     30      24.6390      0.00000
     31      25.4179      0.00000
     32      25.4179      0.00000
     33      34.0532      0.00000
     34      34.0533      0.00000
     35      35.1215      0.00000
     36      35.1215      0.00000
     37      37.1054      0.00000
     38      37.1055      0.00000
     39      38.7671      0.00000
     40      38.7673      0.00000
     41      39.9891      0.00000
     42      39.9901      0.00000
     43      41.2260      0.00000
     44      41.2291      0.00000
     45      42.8085      0.00000
     46      42.8108      0.00000
     47      44.5198      0.00000
     48      44.5459      0.00000
     49      45.4600      0.00000
     50      45.4686      0.00000
     51      52.6918      0.00000
     52      52.9564      0.00000
     53      53.7189      0.00000
     54      54.0681      0.00000

 k-point    14 :       0.5000    0.3333    0.1667
  band No.  band energies     occupation 
      1     -19.6897      1.00000
      2     -19.6867      1.00000
      3     -19.6089      1.00000
      4     -19.5542      1.00000
      5     -19.5182      1.00000
      6     -19.5016      1.00000
      7     -19.4411      1.00000
      8     -19.4222      1.00000
      9     -19.3382      1.00000
     10     -19.3369      1.00000
     11      -5.5870      1.00000
     12      -1.7257      1.00000
     13       1.1173      1.00000
     14       2.3453      1.00000
     15       7.7771      0.00000
     16       8.2116      0.00000
     17       9.3776      0.00000
     18      12.0148      0.00000
     19      14.3957      0.00000
     20      14.9816      0.00000
     21      17.4853      0.00000
     22      18.2761      0.00000
     23      19.0850      0.00000
     24      21.3571      0.00000
     25      21.5382      0.00000
     26      23.3795      0.00000
     27      24.8462      0.00000
     28      26.9676      0.00000
     29      27.3489      0.00000
     30      27.8725      0.00000
     31      28.5200      0.00000
     32      30.0154      0.00000
     33      30.8092      0.00000
     34      32.7403      0.00000
     35      33.3717      0.00000
     36      34.4655      0.00000
     37      35.3000      0.00000
     38      36.3497      0.00000
     39      36.3971      0.00000
     40      39.7161      0.00000
     41      39.9447      0.00000
     42      40.5018      0.00000
     43      41.4063      0.00000
     44      42.6785      0.00000
     45      45.2235      0.00000
     46      45.4636      0.00000
     47      45.9988      0.00000
     48      46.4805      0.00000
     49      47.4151      0.00000
     50      47.8564      0.00000
     51      48.8093      0.00000
     52      49.3332      0.00000
     53      50.7192      0.00000
     54      53.2225      0.00000

 k-point    15 :      -0.3333    0.3333    0.1667
  band No.  band energies     occupation 
      1     -19.6999      1.00000
      2     -19.6895      1.00000
      3     -19.5861      1.00000
      4     -19.5353      1.00000
      5     -19.5115      1.00000
      6     -19.5030      1.00000
      7     -19.4688      1.00000
      8     -19.4408      1.00000
      9     -19.3343      1.00000
     10     -19.3244      1.00000
     11      -4.7116      1.00000
     12      -2.8332      1.00000
     13       0.6724      1.00000
     14       1.9092      1.00000
     15       8.0380      0.00000
     16       8.6254      0.00000
     17      11.0618      0.00000
     18      11.0801      0.00000
     19      13.1373      0.00000
[...]
     48      44.5252      0.00000
     49      45.4589      0.00000
     50      45.4928      0.00000
     51      52.7419      0.00000
     52      52.9607      0.00000
     53      53.5080      0.00000
     54      54.5044      0.00000

 k-point    14 :       0.5000    0.3333    0.1667
  band No.  band energies     occupation 
      1     -19.6897      1.00000
      2     -19.6867      1.00000
      3     -19.6089      1.00000
      4     -19.5542      1.00000
      5     -19.5182      1.00000
      6     -19.5016      1.00000
      7     -19.4411      1.00000
      8     -19.4222      1.00000
      9     -19.3382      1.00000
     10     -19.3369      1.00000
     11      -5.5870      1.00000
     12      -1.7257      1.00000
     13       1.1173      1.00000
     14       2.3453      1.00000
     15       7.7771      0.00000
     16       8.2116      0.00000
     17       9.3776      0.00000
     18      12.0148      0.00000
     19      14.3957      0.00000
     20      14.9816      0.00000
     21      17.4853      0.00000
     22      18.2761      0.00000
     23      19.0850      0.00000
     24      21.3571      0.00000
     25      21.5382      0.00000
     26      23.3795      0.00000
     27      24.8462      0.00000
     28      26.9676      0.00000
     29      27.3489      0.00000
     30      27.8725      0.00000
     31      28.5200      0.00000
     32      30.0154      0.00000
     33      30.8092      0.00000
     34      32.7403      0.00000
     35      33.3717      0.00000
     36      34.4655      0.00000
     37      35.3000      0.00000
     38      36.3497      0.00000
     39      36.3971      0.00000
     40      39.7160      0.00000
     41      39.9464      0.00000
     42      40.5042      0.00000
     43      41.4074      0.00000
     44      42.6760      0.00000
     45      45.2276      0.00000
     46      45.4303      0.00000
     47      45.8914      0.00000
     48      46.4444      0.00000
     49      47.4070      0.00000
     50      47.6869      0.00000
     51      48.8039      0.00000
     52      49.3325      0.00000
     53      49.7394      0.00000
     54      53.0942      0.00000

 k-point    15 :      -0.3333    0.3333    0.1667
  band No.  band energies     occupation 
      1     -19.6999      1.00000
      2     -19.6894      1.00000
      3     -19.5861      1.00000
      4     -19.5353      1.00000
      5     -19.5115      1.00000
      6     -19.5030      1.00000
      7     -19.4688      1.00000
      8     -19.4408      1.00000
      9     -19.3343      1.00000
     10     -19.3244      1.00000
     11      -4.7116      1.00000
     12      -2.8332      1.00000
     13       0.6724      1.00000
     14       1.9092      1.00000
     15       8.0380      0.00000
     16       8.6254      0.00000
     17      11.0618      0.00000
     18      11.0801      0.00000
     19      13.1373      0.00000
     20      16.8905      0.00000
     21      16.9904      0.00000
     22      17.6921      0.00000
     23      21.4054      0.00000
     24      22.0438      0.00000
     25      22.8992      0.00000
     26      23.7613      0.00000
     27      24.2383      0.00000
     28      26.5972      0.00000
     29      27.0652      0.00000
     30      27.5447      0.00000
     31      28.0092      0.00000
     32      29.5106      0.00000
     33      30.1102      0.00000
     34      30.7949      0.00000
     35      32.1270      0.00000
     36      33.3533      0.00000
     37      34.9631      0.00000
     38      35.1980      0.00000
     39      35.5082      0.00000
     40      35.9668      0.00000
     41      40.5816      0.00000
     42      41.2465      0.00000
     43      44.1308      0.00000
     44      44.1439      0.00000
     45      44.9559      0.00000
     46      45.2368      0.00000
     47      46.6158      0.00000
     48      47.7462      0.00000
     49      47.8210      0.00000
     50      48.4796      0.00000
     51      48.6823      0.00000
     52      51.5424      0.00000
     53      52.2390      0.00000
     54      54.2871      0.00000

 k-point    16 :      -0.3333    0.5000    0.1667
  band No.  band energies     occupation 
      1     -19.6953      1.00000
      2     -19.6953      1.00000
      3     -19.5656      1.00000
      4     -19.5655      1.00000
      5     -19.4978      1.00000
      6     -19.4978      1.00000
      7     -19.4598      1.00000
      8     -19.4598      1.00000
      9     -19.3279      1.00000
     10     -19.3279      1.00000
     11      -3.7533      1.00000
     12      -3.7532      1.00000
     13       1.0636      1.00000
     14       1.0636      1.00000
     15       7.7172      0.00000
     16       7.7172      0.00000
     17      11.5672      0.00000
     18      11.5672      0.00000
     19      16.0503      0.00000
     20      16.0503      0.00000
     21      18.0804      0.00000
     22      18.0805      0.00000
     23      22.0276      0.00000
     24      22.0276      0.00000
     25      22.3519      0.00000
     26      22.3519      0.00000
     27      23.7751      0.00000
     28      23.7751      0.00000
     29      27.5601      0.00000
     30      27.5601      0.00000
     31      28.7821      0.00000
     32      28.7821      0.00000
     33      29.3968      0.00000
     34      29.3968      0.00000
     35      32.9045      0.00000
     36      32.9045      0.00000
     37      34.9701      0.00000
     38      34.9702      0.00000
     39      38.8118      0.00000
     40      38.8126      0.00000
     41      40.3665      0.00000
     42      40.3713      0.00000
     43      42.0013      0.00000
     44      42.0152      0.00000
     45      44.9547      0.00000
     46      44.9939      0.00000
     47      47.1425      0.00000
     48      47.2794      0.00000
     49      48.2330      0.00000
     50      48.4278      0.00000
     51      52.8061      0.00000
     52      53.1389      0.00000
     53      53.4894      0.00000
     54      53.9807      0.00000


--------------------------------------------------------------------------------------------------------


 soft charge-density along one line, spin component           1
         0         1         2         3         4         5         6         7         8         9
 total charge-density along one line
 
 soft charge-density along one line, spin component           2
         0         1         2         3         4         5         6         7         8         9
 total charge-density along one line
 
 pseudopotential strength for first ion, spin component:           1
-22.093  -0.000  -0.000  -0.000  -0.000   4.299   0.000   0.000
 -0.000 -22.093   0.000  -0.000  -0.000   0.000   4.299  -0.000
 -0.000   0.000 -22.093   0.000  -0.000   0.000  -0.000   4.299
 -0.000  -0.000   0.000 -22.093   0.000   0.000   0.000  -0.000
 -0.000  -0.000  -0.000   0.000 -22.093   0.000   0.000   0.000
  4.299   0.000   0.000   0.000   0.000   1.978   0.000   0.000
  0.000   4.299  -0.000   0.000   0.000   0.000   1.978  -0.000
  0.000  -0.000   4.299  -0.000   0.000   0.000  -0.000   1.978
  0.000   0.000  -0.000   4.299  -0.000   0.000   0.000  -0.000
  0.000   0.000   0.000  -0.000   4.299   0.000   0.000  -0.000
  0.000   0.000   0.000   0.000  -0.000  -0.000  -0.000  -0.000
  0.000   0.000   0.000   0.000  -0.000  -0.000  -0.000  -0.000
  0.000   0.000   0.000  -0.001   0.000  -0.000  -0.000  -0.000
 -0.001   0.000  -0.000   0.000  -0.000   0.001  -0.000   0.000
  0.000  -0.001   0.000   0.000  -0.000  -0.000   0.001  -0.000
  0.000   0.000   0.000  -0.002   0.000  -0.000  -0.000  -0.000
 -0.002   0.000  -0.000   0.000  -0.000   0.001  -0.000   0.000
  0.000  -0.002   0.000   0.000  -0.000  -0.000   0.001  -0.000
 pseudopotential strength for first ion, spin component:           2
-22.093  -0.000  -0.000  -0.000   0.000   4.299   0.000   0.000
 -0.000 -22.093   0.000  -0.000  -0.000   0.000   4.299  -0.000
 -0.000   0.000 -22.093   0.000  -0.000   0.000  -0.000   4.299
 -0.000  -0.000   0.000 -22.093   0.000   0.000   0.000  -0.000
  0.000  -0.000  -0.000   0.000 -22.093  -0.000   0.000   0.000
  4.299   0.000   0.000   0.000  -0.000   1.978   0.000   0.000
  0.000   4.299  -0.000   0.000   0.000   0.000   1.978  -0.000
  0.000  -0.000   4.299  -0.000   0.000   0.000  -0.000   1.978
  0.000   0.000  -0.000   4.299  -0.000   0.000   0.000  -0.000
 -0.000   0.000   0.000  -0.000   4.299  -0.000   0.000  -0.000
  0.000   0.000   0.000   0.000  -0.000  -0.000  -0.000  -0.000
  0.000   0.000   0.000   0.000  -0.000  -0.000  -0.000  -0.000
  0.000   0.000   0.000  -0.001   0.000  -0.000  -0.000  -0.000
 -0.001   0.000  -0.000   0.000  -0.000   0.001  -0.000   0.000
  0.000  -0.001   0.000   0.000  -0.000  -0.000   0.001  -0.000
  0.000   0.000   0.000  -0.002   0.000  -0.000  -0.000  -0.000
 -0.002   0.000  -0.000   0.000  -0.000   0.001  -0.000   0.000
  0.000  -0.002   0.000   0.000  -0.000  -0.000   0.001  -0.000
 total augmentation occupancy for first ion, spin component:           1
  2.006   0.000  -0.000   0.000  -0.000   0.019   0.000  -0.000   0.000   0.000  -0.000  -0.000   0.000   0.059   0.000  -0.000
  0.000   2.006  -0.000   0.000  -0.000   0.000   0.019  -0.000   0.000  -0.000   0.000  -0.000  -0.000  -0.000   0.059   0.000
  0.000   0.000   2.004  -0.000   0.000  -0.000   0.000   0.010   0.000   0.000   0.000   0.000   0.000   0.000   0.000  -0.000
  0.000   0.000   0.000   2.006   0.000   0.000   0.000   0.000   0.019   0.000  -0.000  -0.000   0.059   0.000  -0.000  -0.019
 -0.000  -0.000   0.000  -0.000   2.004  -0.000  -0.000   0.000   0.000   0.010   0.000  -0.000   0.000   0.000  -0.000  -0.000
  0.019   0.000   0.000   0.000   0.000   0.043   0.000  -0.000   0.000   0.000   0.000  -0.000  -0.000   0.248   0.000  -0.000
  0.000   0.019  -0.000   0.000  -0.000   0.000   0.043   0.000   0.000   0.000   0.000  -0.000   0.000   0.000   0.248   0.000
  0.000  -0.000   0.010   0.000   0.000  -0.000   0.000   0.012   0.000   0.000  -0.000  -0.000   0.000  -0.000   0.000  -0.000
  0.000   0.000  -0.000   0.019   0.000   0.000   0.000   0.000   0.043  -0.000   0.000   0.000   0.248   0.000   0.000  -0.049
 -0.000  -0.000   0.000   0.000   0.010  -0.000  -0.000   0.000  -0.000   0.012  -0.000   0.000   0.000   0.000  -0.000  -0.000
 -0.000   0.000  -0.000   0.000  -0.000   0.000  -0.000   0.000   0.000   0.000   3.602  -1.094   0.000   0.000   0.000  -0.000
  0.000  -0.000  -0.000   0.000   0.000   0.000  -0.000   0.000   0.000   0.000  -1.094   0.476  -0.000  -0.000  -0.000   0.000
  0.000  -0.000   0.000   0.059   0.000   0.000   0.000  -0.000   0.248   0.000  -0.000  -0.000   2.448   0.000   0.000  -0.476
  0.059   0.000   0.000   0.000  -0.000   0.248   0.000  -0.000   0.000   0.000  -0.000  -0.000  -0.000   2.448   0.000   0.000
  0.000   0.059   0.000   0.000  -0.000   0.000   0.248   0.000   0.000  -0.000  -0.000  -0.000   0.000  -0.000   2.448  -0.000
 -0.000  -0.000  -0.000  -0.019  -0.000  -0.000  -0.000   0.000  -0.049  -0.000   0.000  -0.000  -0.476   0.000   0.000   0.100
 -0.019  -0.000   0.000  -0.000  -0.000  -0.049  -0.000   0.000  -0.000  -0.000   0.000  -0.000  -0.000  -0.476   0.000  -0.000
 -0.000  -0.019  -0.000  -0.000   0.000  -0.000  -0.049   0.000   0.000   0.000  -0.000  -0.000  -0.000  -0.000  -0.476   0.000
 total augmentation occupancy for first ion, spin component:           2
 -0.000   0.000   0.000   0.000   0.000  -0.000   0.000   0.000   0.000  -0.000  -0.000   0.000   0.000  -0.000   0.000   0.000
  0.000  -0.000  -0.000  -0.000  -0.000  -0.000  -0.000   0.000  -0.000  -0.000   0.000   0.000  -0.000  -0.000  -0.000   0.000
  0.000  -0.000  -0.000  -0.000   0.000  -0.000  -0.000  -0.000  -0.000  -0.000   0.000  -0.000   0.000   0.000  -0.000  -0.000
  0.000  -0.000   0.000  -0.000   0.000  -0.000  -0.000  -0.000  -0.000   0.000   0.000   0.000  -0.000  -0.000   0.000   0.000
  0.000  -0.000   0.000  -0.000  -0.000   0.000   0.000   0.000   0.000  -0.000   0.000  -0.000  -0.000  -0.000   0.000  -0.000
 -0.000  -0.000  -0.000  -0.000  -0.000  -0.000  -0.000   0.000  -0.000  -0.000   0.000   0.000   0.000  -0.000   0.000   0.000
  0.000  -0.000   0.000  -0.000  -0.000  -0.000  -0.000  -0.000  -0.000  -0.000   0.000   0.000  -0.000   0.000  -0.000  -0.000
  0.000   0.000  -0.000  -0.000   0.000   0.000   0.000  -0.000   0.000   0.000   0.000   0.000   0.000   0.000  -0.000   0.000
  0.000  -0.000  -0.000  -0.000   0.000  -0.000  -0.000   0.000  -0.000   0.000  -0.000  -0.000  -0.000   0.000   0.000   0.000
  0.000  -0.000   0.000   0.000  -0.000  -0.000  -0.000   0.000  -0.000  -0.000   0.000  -0.000  -0.000  -0.000   0.000   0.000
 -0.000   0.000   0.000   0.000   0.000   0.000   0.000   0.000  -0.000   0.000   0.000  -0.000   0.000   0.000   0.000  -0.000
  0.000   0.000  -0.000   0.000  -0.000   0.000   0.000   0.000  -0.000   0.000  -0.000   0.000   0.000  -0.000  -0.000   0.000
  0.000  -0.000  -0.000  -0.000  -0.000   0.000  -0.000   0.000  -0.000  -0.000   0.000   0.000  -0.000  -0.000   0.000   0.000
 -0.000  -0.000   0.000  -0.000  -0.000  -0.000   0.000   0.000   0.000  -0.000   0.000  -0.000  -0.000  -0.000  -0.000  -0.000
  0.000  -0.000   0.000   0.000   0.000   0.000  -0.000   0.000   0.000   0.000   0.000  -0.000   0.000  -0.000  -0.000   0.000
  0.000   0.000   0.000   0.000   0.000   0.000  -0.000   0.000   0.000   0.000  -0.000   0.000   0.000  -0.000   0.000  -0.000
  0.000   0.000   0.000   0.000   0.000   0.000  -0.000   0.000   0.000   0.000  -0.000   0.000   0.000   0.000  -0.000  -0.000
  0.000   0.000  -0.000  -0.000  -0.000   0.000   0.000   0.000  -0.000  -0.000  -0.000   0.000  -0.000  -0.000   0.000   0.000


------------------------ aborting loop because EDIFF is reached ----------------------------------------


 


 total charge     
 
# of ion       s       p       d       tot
------------------------------------------
    1        1.103   1.353  10.024  12.480
    2        1.103   1.353  10.024  12.480
--------------------------------------------------
tot          2.207   2.706  20.048  24.961
 


 magnetization (x)
 
# of ion       s       p       d       tot
------------------------------------------
    1       -0.000   0.000  -0.000  -0.000
    2        0.000   0.000  -0.000   0.000
--------------------------------------------------
tot          0.000   0.000  -0.000   0.000
 
    FORLOC:  cpu time    0.0011: real time    0.0011
    FORNL :  cpu time    0.0116: real time    0.0116
    STRESS:  cpu time    0.0305: real time    0.0309
    FORCOR:  cpu time    0.0096: real time    0.0097
    OFIELD:  cpu time    0.0001: real time    0.0001

  FORCE on cell =-STRESS in cart. coord.  units (eV):
  Direction    XX          YY          ZZ          XY          YZ          ZX
  --------------------------------------------------------------------------------------
  Alpha Z   131.13230   131.13230   131.13230
  Ewald    -899.66750  -899.66750  -899.66750     0.00000    -0.00000     0.00000
  Hartree   503.01978   503.01978   503.01978     0.00000     0.00000     0.00000
  E(xc)    -164.85543  -164.85543  -164.85543     0.00002     0.00002     0.00002
  Local     -25.08238   -25.08238   -25.08238     0.00074     0.00074     0.00074
  n-local    58.21905    59.05603    52.98623     2.53775    -1.05209     0.64849
  augment   252.71334   252.71334   252.71334    -0.00060    -0.00060    -0.00060
  Kinetic   148.11476   147.05357   142.25868     4.12663    -1.36997     1.19465
  Fock        0.00000     0.00000     0.00000     0.00000     0.00000     0.00000
  -------------------------------------------------------------------------------------
  Total      -0.17712    -0.17712    -0.17712     0.00000    -0.00000     0.00000
  in kB      -6.35064    -6.35064    -6.35064     0.00000    -0.00000     0.00000
  external pressure =       -6.35 kB  Pullay stress =        0.00 kB


 VOLUME and BASIS-vectors are now :
 -----------------------------------------------------------------------------
  energy-cutoff  :      450.00
  volume of cell :       44.68
      direct lattice vectors                 reciprocal lattice vectors
     0.000000000  2.816500000  2.816500000    -0.177525297  0.177525297  0.177525297
     2.816500000  0.000000000  2.816500000     0.177525297 -0.177525297  0.177525297
     2.816500000  2.816500000  0.000000000     0.177525297  0.177525297 -0.177525297

  length of vectors
     3.983132498  3.983132498  3.983132498     0.307482835  0.307482835  0.307482835


 FORCES acting on ions:
    Electron-Ion                     Ewald-Force                    Non-Local-Force
 -----------------------------------------------------------------------------------------------
   -.241E-05 -.241E-05 -.130E-05   0.347E-13 0.213E-13 0.640E-13   0.763E-16 0.833E-16 0.111E-15
   0.241E-05 0.241E-05 0.130E-05   -.341E-13 -.194E-13 -.605E-13   -.902E-16 -.694E-16 -.833E-16
 -----------------------------------------------------------------------------------------------
   -.176E-11 0.723E-12 0.305E-11   0.562E-15 0.183E-14 0.346E-14   -.139E-16 0.139E-16 0.278E-16
 
 
 POSITION                                       TOTAL-FORCE (eV/Angst)
 -----------------------------------------------------------------------------------
      0.00000      0.00000      0.00000         0.000000      0.000000     -0.000000
      1.40825      1.40825      1.40825        -0.000000     -0.000000      0.000000
 -----------------------------------------------------------------------------------
    total drift:                               -0.000000      0.000000      0.000000


--------------------------------------------------------------------------------------------------------



  FREE ENERGIE OF THE ION-ELECTRON SYSTEM (eV)
  ---------------------------------------------------
  free  energy   TOTEN  =       -11.37227398 eV

  energy  without entropy=      -11.37227398  energy(sigma->0) =      -11.37227398
 


--------------------------------------------------------------------------------------------------------


    POTLOK:  cpu time    0.0171: real time    0.0172


--------------------------------------------------------------------------------------------------------


 writing wavefunctions
     LOOP+:  cpu time    1.8311: real time    2.2987
    4ORBIT:  cpu time    0.0000: real time    0.0000
 


 total charge     
 
# of ion       s       p       d       tot
------------------------------------------
    1        1.103   1.353  10.024  12.480
    2        1.103   1.353  10.024  12.480
--------------------------------------------------
tot          2.207   2.706  20.048  24.961
 


 magnetization (x)
 
# of ion       s       p       d       tot
------------------------------------------
    1       -0.000   0.000  -0.000  -0.000
    2        0.000   0.000  -0.000   0.000
--------------------------------------------------
tot          0.000   0.000  -0.000   0.000
 

 total amount of memory used by VASP MPI-rank0    42603. kBytes
=======================================================================

   base      :      30000. kBytes
   nonl-proj :        784. kBytes
   fftplans  :        600. kBytes
   grid      :       1402. kBytes
   one-center:         31. kBytes
   wavefun   :       9786. kBytes
 
  
  
 General timing and accounting informations for this job:
 ========================================================
  
                  Total CPU time used (sec):        3.573
                            User time (sec):        2.774
                          System time (sec):        0.799
                         Elapsed time (sec):        5.902
  
                   Maximum memory used (kb):      179924.
                   Average memory used (kb):           0.
  
                          Minor page faults:        19762
                          Major page faults:            0
                 Voluntary context switches:         3471
