 running on   54 total cores
 distrk:  each k-point on    9 cores,    6 groups
 distr:  one band on    3 cores,    3 groups
 using from now: INCAR     
 vasp.5.4.4.18Apr17-6-g9f103f2a35 (build Sep 01 2023 15:42:28) complex          
  
 POSCAR found type information on POSCAR  Ge
 POSCAR found :  1 types and       2 ions
 scaLAPACK will be used

 ----------------------------------------------------------------------------- 
|                                                                             |
|           W    W    AA    RRRRR   N    N  II  N    N   GGGG   !!!           |
|           W    W   A  A   R    R  NN   N  II  NN   N  G    G  !!!           |
|           W    W  A    A  R    R  N N  N  II  N N  N  G       !!!           |
|           W WW W  AAAAAA  RRRRR   N  N N  II  N  N N  G  GGG   !            |
|           WW  WW  A    A  R   R   N   NN  II  N   NN  G    G                |
|           W    W  A    A  R    R  N    N  II  N    N   GGGG   !!!           |
|                                                                             |
|      For optimal performance we recommend to set                            |
|        NCORE= 4 - approx SQRT( number of cores)                             |
|      NCORE specifies how many cores store one orbital (NPAR=cpu/NCORE).     |
|      This setting can  greatly improve the performance of VASP for DFT.     |
|      The default,   NCORE=1            might be grossly inefficient         |
|      on modern multi-core architectures or massively parallel machines.     |
|      Do your own testing !!!!                                               |
|      Unfortunately you need to use the default for GW and RPA calculations. |
|      (for HF NCORE is supported but not extensively tested yet)             |
|                                                                             |
 ----------------------------------------------------------------------------- 


 ----------------------------------------------------------------------------- 
|                                                                             |
|           W    W    AA    RRRRR   N    N  II  N    N   GGGG   !!!           |
|           W    W   A  A   R    R  NN   N  II  NN   N  G    G  !!!           |
|           W    W  A    A  R    R  N N  N  II  N N  N  G       !!!           |
|           W WW W  AAAAAA  RRRRR   N  N N  II  N  N N  G  GGG   !            |
|           WW  WW  A    A  R   R   N   NN  II  N   NN  G    G                |
|           W    W  A    A  R    R  N    N  II  N    N   GGGG   !!!           |
|                                                                             |
|      You have enabled k-point parallelism (KPAR>1).                         |
|      This developmental code was originally  written by Paul Kent at ORNL,  |
|      and carefully double checked in Vienna.                                |
|      GW as well as linear response parallelism added by Martijn Marsman     |
|      and Georg Kresse.                                                      |
|      Carefully verify results versus KPAR=1.                                |
|      Report problems to Paul Kent and Vienna.                               |
|                                                                             |
 ----------------------------------------------------------------------------- 

 LDA part: xc-table for Pade appr. of Perdew
 POSCAR, INCAR and KPOINTS ok, starting setup
 FFT: planning ...
 WAVECAR not read
 entering main loop
       N       E                     dE             d eps       ncg     rms          ort
DAV:   1     0.250138067223E+03    0.25014E+03   -0.11256E+04   864   0.169E+03
DAV:   2     0.512685775283E+02   -0.19887E+03   -0.18063E+03   864   0.354E+02
DAV:   3    -0.314901410991E+01   -0.54418E+02   -0.52625E+02   864   0.842E+01
DAV:   4    -0.108496304572E+02   -0.77006E+01   -0.75971E+01   864   0.351E+01
DAV:   5    -0.116063006746E+02   -0.75667E+00   -0.75488E+00   864   0.116E+01
 gam= 0.000 g(H,U,f)=  0.132E+00 0.316E-01 0.116E-17 ort(H,U,f) = 0.000E+00 0.000E+00 0.000E+00
SDA:   6    -0.112827558315E+02    0.32354E+00   -0.65555E-01   864   0.164E+00 0.000E+00
 gam= 0.382 g(H,U,f)=  0.352E-01 0.196E-01 0.998E-14 ort(H,U,f) = 0.651E-01 0.248E-01 0.129E-13
DMP:   7    -0.113335085118E+02   -0.50753E-01   -0.35670E-01   864   0.548E-01 0.899E-01
 gam= 0.382 g(H,U,f)=  0.571E-02 0.960E-02 0.527E-17 ort(H,U,f) = 0.125E-01 0.203E-01 0.116E-16
DMP:   8    -0.113578922253E+02   -0.24384E-01   -0.11136E-01   864   0.153E-01 0.328E-01
 gam= 0.382 g(H,U,f)=  0.280E-02 0.401E-02 0.286E-17 ort(H,U,f) =-0.186E-02 0.112E-01 0.824E-17
DMP:   9    -0.113653206241E+02   -0.74284E-02   -0.41491E-02   864   0.681E-02 0.933E-02
 gam= 0.382 g(H,U,f)=  0.181E-02 0.147E-02 0.118E-15 ort(H,U,f) =-0.453E-03 0.500E-02 0.400E-15
DMP:  10    -0.113683013518E+02   -0.29807E-02   -0.20060E-02   864   0.328E-02 0.455E-02
 gam= 0.382 g(H,U,f)=  0.780E-03 0.477E-03 0.314E-17 ort(H,U,f) = 0.530E-03 0.191E-02 0.670E-17
DMP:  11    -0.113697895790E+02   -0.14882E-02   -0.87653E-03   864   0.126E-02 0.244E-02
 gam= 0.382 g(H,U,f)=  0.222E-03 0.143E-03 0.299E-14 ort(H,U,f) = 0.289E-03 0.643E-03 0.163E-13
DMP:  12    -0.113704107290E+02   -0.62115E-03   -0.28819E-03   864   0.364E-03 0.932E-03
 gam= 0.382 g(H,U,f)=  0.736E-04 0.416E-04 0.112E-16 ort(H,U,f) = 0.501E-04 0.193E-03 0.873E-16
DMP:  13    -0.113706009099E+02   -0.19018E-03   -0.83308E-04   864   0.115E-03 0.244E-03
 gam= 0.382 g(H,U,f)=  0.334E-04 0.121E-04 0.233E-17 ort(H,U,f) = 0.122E-04 0.534E-04 0.196E-16
DMP:  14    -0.113706541714E+02   -0.53262E-04   -0.28186E-04   864   0.454E-04 0.655E-04
 final diagonalization
   1 F= -.11370654E+02 E0= -.11370654E+02  d E =-.291660E-14  mag=    -0.0000
 writing wavefunctions
