<?xml version="1.0" encoding="ISO-8859-1"?>
<modeling>
 <generator>
  <i name="program" type="string">vasp </i>
  <i name="version" type="string">5.4.4.18Apr17-6-g9f103f2a35  </i>
  <i name="subversion" type="string">(build Sep 01 2023 15:42:28) complex            parallel </i>
  <i name="platform" type="string">LinuxIFC </i>
  <i name="date" type="string">2024 08 12 </i>
  <i name="time" type="string">11:16:00 </i>
 </generator>
 <incar>
  <i type="int" name="ISTART">     0</i>
  <i type="string" name="PREC">n</i>
  <i type="string" name="ALGO"> D</i>
  <i type="int" name="ISPIN">     2</i>
  <i type="int" name="ICHARG">     2</i>
  <i name="ENCUT">    450.00000000</i>
  <i type="int" name="NBANDS">    54</i>
  <v name="MAGMOM">      0.00000000      0.00000000****************      0.00000000      0.00000000****************</v>
  <i type="int" name="ISMEAR">     0</i>
  <i name="SIGMA">      0.05000000</i>
  <i type="int" name="LMAXMIX">     2</i>
  <i type="int" name="LORBIT">    11</i>
  <v type="int" name="KPOINT_BSE">    -1     0     0     0</v>
  <i type="string" name="GGA"> Pe</i>
  <i type="logical" name="LDAU"> T  </i>
  <v type="int" name="LDAUL">     1</v>
  <v name="LDAUU">     -2.30930492</v>
  <v name="LDAUJ">      0.00000000</v>
 </incar>
 <structure name="primitive_cell" >
  <crystal>
   <varray name="basis" >
    <v>       0.00000000       2.81650000       2.81650000 </v>
    <v>       2.81650000       0.00000000       2.81650000 </v>
    <v>       2.81650000       2.81650000       0.00000000 </v>
   </varray>
   <i name="volume">     44.68474278 </i>
   <varray name="rec_basis" >
    <v>      -0.17752530       0.17752530       0.17752530 </v>
    <v>       0.17752530      -0.17752530       0.17752530 </v>
    <v>       0.17752530       0.17752530      -0.17752530 </v>
   </varray>
  </crystal>
  <varray name="positions" >
   <v>       0.00000000       0.00000000       0.00000000 </v>
   <v>       0.25000000       0.25000000       0.25000000 </v>
  </varray>
 </structure>
 <varray name="primitive_index" >
  <v type="int" >        1 </v>
  <v type="int" >        2 </v>
 </varray>
 <kpoints>
  <generation param="Gamma">
   <v type="int" name="divisions">       6        6        6 </v>
   <v name="usershift">      0.00000000       0.00000000       0.00000000 </v>
   <v name="genvec1">      0.16666667       0.00000000       0.00000000 </v>
   <v name="genvec2">      0.00000000       0.16666667       0.00000000 </v>
   <v name="genvec3">      0.00000000       0.00000000       0.16666667 </v>
   <v name="shift">      0.00000000       0.00000000       0.00000000 </v>
  </generation>
  <varray name="kpointlist" >
   <v>       0.00000000       0.00000000       0.00000000 </v>
   <v>       0.16666667       0.00000000       0.00000000 </v>
   <v>       0.33333333       0.00000000       0.00000000 </v>
   <v>       0.50000000       0.00000000       0.00000000 </v>
   <v>       0.16666667       0.16666667       0.00000000 </v>
   <v>       0.33333333       0.16666667       0.00000000 </v>
   <v>       0.50000000       0.16666667       0.00000000 </v>
   <v>      -0.33333333       0.16666667       0.00000000 </v>
   <v>      -0.16666667       0.16666667       0.00000000 </v>
   <v>       0.33333333       0.33333333       0.00000000 </v>
   <v>       0.50000000       0.33333333       0.00000000 </v>
   <v>      -0.33333333       0.33333333       0.00000000 </v>
   <v>       0.50000000       0.50000000       0.00000000 </v>
   <v>       0.50000000       0.33333333       0.16666667 </v>
   <v>      -0.33333333       0.33333333       0.16666667 </v>
   <v>      -0.33333333       0.50000000       0.16666667 </v>
  </varray>
  <varray name="weights" >
   <v>       0.00462963 </v>
   <v>       0.03703704 </v>
   <v>       0.03703704 </v>
   <v>       0.01851852 </v>
   <v>       0.02777778 </v>
   <v>       0.11111111 </v>
   <v>       0.11111111 </v>
   <v>       0.11111111 </v>
   <v>       0.05555556 </v>
   <v>       0.02777778 </v>
   <v>       0.11111111 </v>
   <v>       0.05555556 </v>
   <v>       0.01388889 </v>
   <v>       0.11111111 </v>
   <v>       0.11111111 </v>
   <v>       0.05555556 </v>
  </varray>
 </kpoints>
 <parameters>
  <separator name="general" >
   <i type="string" name="SYSTEM">unknown system</i>
   <i type="logical" name="LCOMPAT"> F  </i>
  </separator>
  <separator name="electronic" >
   <i type="string" name="PREC">n</i>
   <i name="ENMAX">    450.00000000</i>
   <i name="ENAUG">    531.35600000</i>
   <i name="EDIFF">      0.00010000</i>
   <i type="int" name="IALGO">    53</i>
   <i type="int" name="IWAVPR">    10</i>
   <i type="int" name="NBANDS">    54</i>
   <i name="NELECT">     28.00000000</i>
   <i type="int" name="TURBO">     0</i>
   <i type="int" name="IRESTART">     0</i>
   <i type="int" name="NREBOOT">     0</i>
   <i type="int" name="NMIN">     0</i>
   <i name="EREF">      0.00000000</i>
   <separator name="electronic smearing" >
    <i type="int" name="ISMEAR">     0</i>
    <i name="SIGMA">      0.05000000</i>
    <i name="KSPACING">      0.50000000</i>
    <i type="logical" name="KGAMMA"> T  </i>
   </separator>
   <separator name="electronic projectors" >
    <i type="logical" name="LREAL"> F  </i>
    <v name="ROPT">      0.00000000</v>
    <i type="int" name="LMAXPAW">  -100</i>
    <i type="int" name="LMAXMIX">     2</i>
    <i type="logical" name="NLSPLINE"> F  </i>
   </separator>
   <separator name="electronic startup" >
    <i type="int" name="ISTART">     0</i>
    <i type="int" name="ICHARG">     2</i>
    <i type="int" name="INIWAV">     1</i>
   </separator>
   <separator name="electronic spin" >
    <i type="int" name="ISPIN">     2</i>
    <i type="logical" name="LNONCOLLINEAR"> F  </i>
    <v name="MAGMOM">      0.00000000      0.00000000</v>
    <i name="NUPDOWN">     -1.00000000</i>
    <i type="logical" name="LSORBIT"> F  </i>
    <v name="SAXIS">      0.00000000      0.00000000      1.00000000</v>
    <i type="logical" name="LSPIRAL"> F  </i>
    <v name="QSPIRAL">      0.00000000      0.00000000      0.00000000</v>
    <i type="logical" name="LZEROZ"> F  </i>
   </separator>
   <separator name="electronic exchange-correlation" >
    <i type="logical" name="LASPH"> F  </i>
    <i type="logical" name="LMETAGGA"> F  </i>
   </separator>
   <separator name="electronic convergence" >
    <i type="int" name="NELM">    60</i>
    <i type="int" name="NELMDL">    -5</i>
    <i type="int" name="NELMIN">     2</i>
    <i name="ENINI">    450.00000000</i>
    <separator name="electronic convergence detail" >
     <i type="logical" name="LDIAG"> T  </i>
     <i type="logical" name="LSUBROT"> F  </i>
     <i name="WEIMIN">      0.00000000</i>
     <i name="EBREAK">      0.00000046</i>
     <i name="DEPER">      0.30000000</i>
     <i type="int" name="NRMM">     4</i>
     <i name="TIME">      0.40000000</i>
    </separator>
   </separator>
   <separator name="electronic mixer" >
    <i name="AMIX">      0.40000000</i>
    <i name="BMIX">      1.00000000</i>
    <i name="AMIN">      0.10000000</i>
    <i name="AMIX_MAG">      1.60000000</i>
    <i name="BMIX_MAG">      1.00000000</i>
    <separator name="electronic mixer details" >
     <i type="int" name="IMIX">     4</i>
     <i type="logical" name="MIXFIRST"> F  </i>
     <i type="int" name="MAXMIX">   -45</i>
     <i name="WC">    100.00000000</i>
     <i type="int" name="INIMIX">     1</i>
     <i type="int" name="MIXPRE">     1</i>
     <i type="int" name="MREMOVE">     5</i>
    </separator>
   </separator>
   <separator name="electronic dipolcorrection" >
    <i type="logical" name="LDIPOL"> F  </i>
    <i type="logical" name="LMONO"> F  </i>
    <i type="int" name="IDIPOL">     0</i>
    <i name="EPSILON">      1.00000000</i>
    <v name="DIPOL">   -100.00000000   -100.00000000   -100.00000000</v>
    <i name="EFIELD">      0.00000000</i>
   </separator>
  </separator>
  <separator name="grids" >
   <i type="int" name="NGX">    24</i>
   <i type="int" name="NGY">    24</i>
   <i type="int" name="NGZ">    24</i>
   <i type="int" name="NGXF">    48</i>
   <i type="int" name="NGYF">    48</i>
   <i type="int" name="NGZF">    48</i>
   <i type="logical" name="ADDGRID"> F  </i>
  </separator>
  <separator name="ionic" >
   <i type="int" name="NSW">     0</i>
   <i type="int" name="IBRION">    -1</i>
   <i type="int" name="MDALGO">     0</i>
   <i type="int" name="ISIF">     2</i>
   <i name="PSTRESS">      0.00000000</i>
   <i name="EDIFFG">      0.00100000</i>
   <i type="int" name="NFREE">     0</i>
   <i name="POTIM">      0.50000000</i>
   <i name="SMASS">     -3.00000000</i>
   <i name="SCALEE">      1.00000000</i>
  </separator>
  <separator name="ionic md" >
   <i name="TEBEG">      0.00010000</i>
   <i name="TEEND">      0.00010000</i>
   <i type="int" name="NBLOCK">     1</i>
   <i type="int" name="KBLOCK">     1</i>
   <i type="int" name="NPACO">   256</i>
   <i name="APACO">     16.00000000</i>
  </separator>
  <separator name="symmetry" >
   <i type="int" name="ISYM">     2</i>
   <i name="SYMPREC">      0.00001000</i>
  </separator>
  <separator name="dos" >
   <i type="int" name="LORBIT">    11</i>
   <v name="RWIGS">     -1.00000000</v>
   <i type="int" name="NEDOS">   301</i>
   <i name="EMIN">     10.00000000</i>
   <i name="EMAX">    -10.00000000</i>
   <i name="EFERMI">      0.00000000</i>
  </separator>
  <separator name="writing" >
   <i type="int" name="NWRITE">     2</i>
   <i type="logical" name="LWAVE"> T  </i>
   <i type="logical" name="LDOWNSAMPLE"> F  </i>
   <i type="logical" name="LCHARG"> T  </i>
   <i type="logical" name="LPARD"> F  </i>
   <i type="logical" name="LVTOT"> F  </i>
   <i type="logical" name="LVHAR"> F  </i>
   <i type="logical" name="LELF"> F  </i>
   <i type="logical" name="LOPTICS"> F  </i>
   <v name="STM">      0.00000000      0.00000000      0.00000000      0.00000000      0.00000000      0.00000000      0.00000000</v>
  </separator>
  <separator name="performance" >
   <i type="int" name="NPAR">     3</i>
   <i type="int" name="NSIM">     4</i>
   <i type="int" name="NBLK">    -1</i>
   <i type="logical" name="LPLANE"> T  </i>
   <i type="logical" name="LSCALAPACK"> T  </i>
   <i type="logical" name="LSCAAWARE"> F  </i>
   <i type="logical" name="LSCALU"> F  </i>
   <i type="logical" name="LASYNC"> F  </i>
   <i type="logical" name="LORBITALREAL"> F  </i>
  </separator>
  <separator name="miscellaneous" >
   <i type="int" name="IDIOT">     3</i>
   <i type="int" name="ISPECIAL">     0</i>
   <i type="logical" name="LMUSIC"> F  </i>
   <v name="POMASS">     72.61000000</v>
   <v name="DARWINR">      0.00000000</v>
   <v name="DARWINV">      1.00000000</v>
   <i type="logical" name="LCORR"> T  </i>
  </separator>
  <i type="logical" name="GGA_COMPAT"> T  </i>
  <i type="logical" name="LBERRY"> F  </i>
  <i type="int" name="ICORELEVEL">     0</i>
  <i type="logical" name="LDAU"> T  </i>
  <v type="int" name="LDAUTYPE">     2</v>
  <v type="int" name="LDAUL">     1</v>
  <v name="LDAUU">     -2.30930492</v>
  <v name="LDAUJ">      0.00000000</v>
  <i type="int" name="LDAUPRINT">     0</i>
  <i type="int" name="I_CONSTRAINED_M">     0</i>
  <separator name="electronic exchange-correlation" >
   <i type="string" name="GGA">PE</i>
   <i type="int" name="VOSKOWN">     0</i>
   <i type="logical" name="LHFCALC"> F  </i>
   <i type="string" name="PRECFOCK"></i>
   <i type="logical" name="LSYMGRAD"> F  </i>
   <i type="logical" name="LHFONE"> F  </i>
   <i type="logical" name="LRHFCALC"> F  </i>
   <i type="logical" name="LTHOMAS"> F  </i>
   <i type="logical" name="LMODELHF"> F  </i>
   <i name="ENCUT4O">     -1.00000000</i>
   <i type="int" name="EXXOEP">     0</i>
   <i type="int" name="FOURORBIT">     0</i>
   <i name="AEXX">      0.00000000</i>
   <i name="HFALPHA">      0.00000000</i>
   <i name="MCALPHA">      0.00000000</i>
   <i name="ALDAX">      1.00000000</i>
   <i name="AGGAX">      1.00000000</i>
   <i name="ALDAC">      1.00000000</i>
   <i name="AGGAC">      1.00000000</i>
   <i type="int" name="NKREDX">     1</i>
   <i type="int" name="NKREDY">     1</i>
   <i type="int" name="NKREDZ">     1</i>
   <i type="logical" name="SHIFTRED"> F  </i>
   <i type="logical" name="ODDONLY"> F  </i>
   <i type="logical" name="EVENONLY"> F  </i>
   <i type="int" name="LMAXFOCK">     0</i>
   <i type="int" name="NMAXFOCKAE">     0</i>
   <i type="logical" name="LFOCKAEDFT"> F  </i>
   <i name="HFSCREEN">      0.00000000</i>
   <i name="HFSCREENC">      0.00000000</i>
   <i type="int" name="NBANDSGWLOW">     0</i>
  </separator>
  <separator name="vdW DFT" >
   <i type="logical" name="LUSE_VDW"> F  </i>
   <i name="Zab_VDW">     -0.84910000</i>
   <i name="PARAM1">      0.12340000</i>
   <i name="PARAM2">      1.00000000</i>
   <i name="PARAM3">      0.00000000</i>
  </separator>
  <separator name="model GW" >
   <i type="int" name="MODEL_GW">     0</i>
   <i name="MODEL_EPS0">     13.40542284</i>
   <i name="MODEL_ALPHA">      1.00000000</i>
  </separator>
  <separator name="linear response parameters" >
   <i type="logical" name="LEPSILON"> F  </i>
   <i type="logical" name="LRPA"> F  </i>
   <i type="logical" name="LNABLA"> F  </i>
   <i type="logical" name="LVEL"> F  </i>
   <i type="int" name="KINTER">     0</i>
   <i name="CSHIFT">      0.10000000</i>
   <i name="OMEGAMAX">     -1.00000000</i>
   <i name="DEG_THRESHOLD">      0.00200000</i>
   <i name="RTIME">     -0.10000000</i>
   <i name="WPLASMAI">      0.00000000</i>
   <v name="DFIELD">      0.00000000      0.00000000      0.00000000</v>
   <v name="WPLASMA">      0.00000000      0.00000000      0.00000000      0.00000000      0.00000000      0.00000000      0.00000000      0.00000000      0.00000000</v>
  </separator>
  <separator name="orbital magnetization" >
   <i type="logical" name="NUCIND"> F  </i>
   <v name="MAGPOS">      0.00000000      0.00000000      0.00000000</v>
   <i type="logical" name="LNICSALL"> T  </i>
   <i type="logical" name="ORBITALMAG"> F  </i>
   <i type="logical" name="LMAGBLOCH"> F  </i>
   <i type="logical" name="LCHIMAG"> F  </i>
   <i type="logical" name="LGAUGE"> T  </i>
   <i type="int" name="MAGATOM">     0</i>
   <v name="MAGDIPOL">      0.00000000      0.00000000      0.00000000</v>
   <v name="AVECCONST">      0.00000000      0.00000000      0.00000000</v>
  </separator>
  <separator name="response functions" >
   <i type="logical" name="LADDER"> F  </i>
   <i type="logical" name="LRPAFORCE"> F  </i>
   <i type="logical" name="LFXC"> F  </i>
   <i type="logical" name="LHARTREE"> T  </i>
   <i type="int" name="IBSE">     0</i>
   <v type="int" name="KPOINT">    -1     0     0     0</v>
   <i type="logical" name="LTCTE"> F  </i>
   <i type="logical" name="LTETE"> F  </i>
   <i type="logical" name="LTRIPLET"> F  </i>
   <i type="logical" name="LFXCEPS"> F  </i>
   <i type="logical" name="LFXHEG"> F  </i>
   <i type="int" name="NATURALO">     2</i>
   <i type="logical" name="L2ORDER"> F  </i>
   <i type="logical" name="LMP2LT"> F  </i>
   <i type="logical" name="LUSEW"> F  </i>
   <i name="ENCUTGW">     -2.00000000</i>
   <i name="ENCUTGWSOFT">     -2.00000000</i>
   <i name="ENCUTLF">     -1.00000000</i>
   <i type="int" name="LMAXMP2">    -1</i>
   <i name="SCISSOR">      0.00000000</i>
   <i type="int" name="NOMEGA">     0</i>
   <i type="int" name="NOMEGAR">     0</i>
   <i type="int" name="NBANDSGW">    -1</i>
   <i type="int" name="NBANDSO">    -1</i>
   <i type="int" name="NBANDSV">    -1</i>
   <i type="int" name="NELM">     1</i>
   <i type="int" name="NELMHF">     1</i>
   <i type="int" name="DIM">     3</i>
   <i type="int" name="ANTIRES">     0</i>
   <i name="OMEGAMAX">    -30.00000000</i>
   <i name="OMEGAMIN">    -30.00000000</i>
   <i name="OMEGATL">   -200.00000000</i>
   <i type="int" name="OMEGAGRID">   140</i>
   <i name="CSHIFT">     -0.10000000</i>
   <i type="logical" name="SELFENERGY"> F  </i>
   <i type="logical" name="LSPECTRAL"> F  </i>
   <i type="logical" name="LSPECTRALGW"> F  </i>
   <i type="logical" name="LSINGLES"> F  </i>
   <i type="logical" name="LFERMIGW"> F  </i>
   <i type="logical" name="ODDONLYGW"> F  </i>
   <i type="logical" name="EVENONLYGW"> F  </i>
   <i type="int" name="NKREDLFX">     1</i>
   <i type="int" name="NKREDLFY">     1</i>
   <i type="int" name="NKREDLFZ">     1</i>
   <i type="int" name="MAXMEM">  2800</i>
   <i type="int" name="TELESCOPE">     0</i>
   <i type="int" name="TAUPAR">     1</i>
   <i type="int" name="OMEGAPAR">    -1</i>
   <i name="LAMBDA">      1.00000000</i>
  </separator>
  <separator name="External order field" >
   <i name="OFIELD_KAPPA">      0.00000000</i>
   <v name="OFIELD_K">      0.00000000      0.00000000      0.00000000</v>
   <i name="OFIELD_Q6_NEAR">      0.00000000</i>
   <i name="OFIELD_Q6_FAR">      0.00000000</i>
   <i name="OFIELD_A">      0.00000000</i>
  </separator>
 </parameters>
 <atominfo>
  <atoms>       2 </atoms>
  <types>       1 </types>
  <array name="atoms" >
   <dimension dim="1">ion</dimension>
   <field type="string">element</field>
   <field type="int">atomtype</field>
   <set>
    <rc><c>Ge</c><c>   1</c></rc>
    <rc><c>Ge</c><c>   1</c></rc>
   </set>
  </array>
  <array name="atomtypes" >
   <dimension dim="1">type</dimension>
   <field type="int">atomspertype</field>
   <field type="string">element</field>
   <field>mass</field>
   <field>valence</field>
   <field type="string">pseudopotential</field>
   <set>
    <rc><c>   2</c><c>Ge</c><c>     72.61000000</c><c>     14.00000000</c><c>  PAW_PBE Ge_d 03Jul2007                </c></rc>
   </set>
  </array>
 </atominfo>
 <structure name="initialpos" >
  <crystal>
   <varray name="basis" >
    <v>       0.00000000       2.81650000       2.81650000 </v>
    <v>       2.81650000       0.00000000       2.81650000 </v>
    <v>       2.81650000       2.81650000       0.00000000 </v>
   </varray>
   <i name="volume">     44.68474278 </i>
   <varray name="rec_basis" >
    <v>      -0.17752530       0.17752530       0.17752530 </v>
    <v>       0.17752530      -0.17752530       0.17752530 </v>
    <v>       0.17752530       0.17752530      -0.17752530 </v>
   </varray>
  </crystal>
  <varray name="positions" >
   <v>       0.00000000       0.00000000       0.00000000 </v>
   <v>       0.25000000       0.25000000       0.25000000 </v>
  </varray>
 </structure>
 <calculation>
  <scstep>
   <time name="total">    0.19    0.19</time>
   <energy>
    <i name="alphaZ">    131.13230232 </i>
    <i name="ewald">  -2699.00129049 </i>
    <i name="hartreedc">  -1507.28522658 </i>
    <i name="XCdc">    146.18216515 </i>
    <i name="pawpsdc">   3673.23166740 </i>
    <i name="pawaedc">  -4543.37818328 </i>
    <i name="eentropy">     -0.00081423 </i>
    <i name="bandstr">   -143.20763056 </i>
    <i name="atom">   5192.46507749 </i>
    <i name="e_fr_energy">    250.13806722 </i>
    <i name="e_wo_entrp">    250.13888145 </i>
    <i name="e_0_energy">    250.13847434 </i>
   </energy>
  </scstep>
  <scstep>
   <time name="total">    0.13    0.13</time>
   <energy>
    <i name="e_fr_energy">     51.26857753 </i>
    <i name="e_wo_entrp">     51.26918422 </i>
    <i name="e_0_energy">     51.26888088 </i>
   </energy>
  </scstep>
  <scstep>
   <time name="total">    0.13    0.13</time>
   <energy>
    <i name="e_fr_energy">     -3.14901411 </i>
    <i name="e_wo_entrp">     -3.14901411 </i>
    <i name="e_0_energy">     -3.14901411 </i>
   </energy>
  </scstep>
  <scstep>
   <time name="total">    0.12    0.12</time>
   <energy>
    <i name="e_fr_energy">    -10.84963046 </i>
    <i name="e_wo_entrp">    -10.84963046 </i>
    <i name="e_0_energy">    -10.84963046 </i>
   </energy>
  </scstep>
  <scstep>
   <time name="total">    0.14    0.15</time>
   <energy>
    <i name="e_fr_energy">    -11.60630067 </i>
    <i name="e_wo_entrp">    -11.60630067 </i>
    <i name="e_0_energy">    -11.60630067 </i>
   </energy>
  </scstep>
  <scstep>
   <time name="total">    0.08    0.08</time>
   <energy>
    <i name="e_fr_energy">    -11.28275583 </i>
    <i name="e_wo_entrp">    -11.28275583 </i>
    <i name="e_0_energy">    -11.28275583 </i>
   </energy>
  </scstep>
  <scstep>
   <time name="total">    0.08    0.08</time>
   <energy>
    <i name="e_fr_energy">    -11.33350851 </i>
    <i name="e_wo_entrp">    -11.33350851 </i>
    <i name="e_0_energy">    -11.33350851 </i>
   </energy>
  </scstep>
  <scstep>
   <time name="total">    0.08    0.08</time>
   <energy>
    <i name="e_fr_energy">    -11.35789223 </i>
    <i name="e_wo_entrp">    -11.35789223 </i>
    <i name="e_0_energy">    -11.35789223 </i>
   </energy>
  </scstep>
  <scstep>
   <time name="total">    0.08    0.08</time>
   <energy>
    <i name="e_fr_energy">    -11.36532062 </i>
    <i name="e_wo_entrp">    -11.36532062 </i>
    <i name="e_0_energy">    -11.36532062 </i>
   </energy>
  </scstep>
  <scstep>
   <time name="total">    0.08    0.08</time>
   <energy>
    <i name="e_fr_energy">    -11.36830135 </i>
    <i name="e_wo_entrp">    -11.36830135 </i>
    <i name="e_0_energy">    -11.36830135 </i>
   </energy>
  </scstep>
  <scstep>
   <time name="total">    0.08    0.08</time>
   <energy>
    <i name="e_fr_energy">    -11.36978958 </i>
    <i name="e_wo_entrp">    -11.36978958 </i>
    <i name="e_0_energy">    -11.36978958 </i>
   </energy>
  </scstep>
  <scstep>
   <time name="total">    0.08    0.08</time>
   <energy>
    <i name="e_fr_energy">    -11.37041073 </i>
    <i name="e_wo_entrp">    -11.37041073 </i>
    <i name="e_0_energy">    -11.37041073 </i>
   </energy>
  </scstep>
  <scstep>
   <time name="total">    0.08    0.08</time>
   <energy>
    <i name="e_fr_energy">    -11.37060091 </i>
    <i name="e_wo_entrp">    -11.37060091 </i>
    <i name="e_0_energy">    -11.37060091 </i>
   </energy>
  </scstep>
  <scstep>
   <time name="total">    0.10    0.10</time>
   <energy>
    <i name="alphaZ">    131.13230232 </i>
    <i name="ewald">  -2699.00129049 </i>
    <i name="hartreedc">  -1509.07432217 </i>
    <i name="XCdc">    145.87366241 </i>
    <i name="pawpsdc">   4744.53588787 </i>
    <i name="pawaedc">  -5621.33588708 </i>
    <i name="eentropy">     -0.00000000 </i>
    <i name="bandstr">   -395.96608451 </i>
    <i name="atom">   5192.46507749 </i>
    <i name="e_fr_energy">    -11.37065417 </i>
    <i name="e_wo_entrp">    -11.37065417 </i>
    <i name="e_0_energy">    -11.37065417 </i>
   </energy>
  </scstep>
  <structure>
   <crystal>
    <varray name="basis" >
     <v>       0.00000000       2.81650000       2.81650000 </v>
     <v>       2.81650000       0.00000000       2.81650000 </v>
     <v>       2.81650000       2.81650000       0.00000000 </v>
    </varray>
    <i name="volume">     44.68474278 </i>
    <varray name="rec_basis" >
     <v>      -0.17752530       0.17752530       0.17752530 </v>
     <v>       0.17752530      -0.17752530       0.17752530 </v>
     <v>       0.17752530       0.17752530      -0.17752530 </v>
    </varray>
   </crystal>
   <varray name="positions" >
    <v>       0.00000000       0.00000000       0.00000000 </v>
    <v>       0.25000000       0.25000000       0.25000000 </v>
   </varray>
  </structure>
  <varray name="forces" >
   <v>      -0.00000000      -0.00000000      -0.00000000 </v>
   <v>       0.00000000       0.00000000       0.00000000 </v>
  </varray>
  <varray name="stress" >
   <v>      -6.31858789       0.00000000      -0.00000000 </v>
   <v>       0.00000000      -6.31858789       0.00000000 </v>
   <v>       0.00000000       0.00000000      -6.31858789 </v>
  </varray>
  <energy>
   <i name="e_fr_energy">    -11.37065417 </i>
   <i name="e_wo_entrp">    -11.37065417 </i>
   <i name="e_0_energy">     -0.00000000 </i>
  </energy>
  <time name="totalsc">    1.71    2.06</time>
  <eigenvalues>
   <array>
    <dimension dim="1">band</dimension>
    <dimension dim="2">kpoint</dimension>
    <dimension dim="3">spin</dimension>
    <field>eigene</field>
    <field>occ</field>
    <set>
     <set comment="spin 1">
      <set comment="kpoint 1">
       <r>  -19.6492    1.0000 </r>
       <r>  -19.6492    1.0000 </r>
       <r>  -19.6492    1.0000 </r>
       <r>  -19.6131    1.0000 </r>
       <r>  -19.6131    1.0000 </r>
       <r>  -19.3947    1.0000 </r>
       <r>  -19.3947    1.0000 </r>
       <r>  -19.3947    1.0000 </r>
       <r>  -19.3805    1.0000 </r>
       <r>  -19.3805    1.0000 </r>
       <r>   -7.7003    1.0000 </r>
       <r>    4.7782    1.0000 </r>
       <r>    4.7782    1.0000 </r>
       <r>    4.7782    1.0000 </r>
       <r>    5.3362    0.0000 </r>
       <r>    7.4468    0.0000 </r>
       <r>    7.4468    0.0000 </r>
       <r>    7.4468    0.0000 </r>
       <r>   11.6278    0.0000 </r>
       <r>   14.6731    0.0000 </r>
       <r>   14.6731    0.0000 </r>
       <r>   15.9412    0.0000 </r>
       <r>   15.9412    0.0000 </r>
       <r>   15.9412    0.0000 </r>
       <r>   19.0576    0.0000 </r>
       <r>   30.3738    0.0000 </r>
       <r>   30.3738    0.0000 </r>
       <r>   30.3738    0.0000 </r>
       <r>   31.2968    0.0000 </r>
       <r>   31.2968    0.0000 </r>
       <r>   31.2969    0.0000 </r>
       <r>   31.8638    0.0000 </r>
       <r>   31.8638    0.0000 </r>
       <r>   31.8638    0.0000 </r>
       <r>   32.8955    0.0000 </r>
       <r>   32.8955    0.0000 </r>
       <r>   39.9232    0.0000 </r>
       <r>   44.3108    0.0000 </r>
       <r>   44.7873    0.0000 </r>
       <r>   44.8822    0.0000 </r>
       <r>   45.0242    0.0000 </r>
       <r>   45.0996    0.0000 </r>
       <r>   45.3810    0.0000 </r>
       <r>   45.7292    0.0000 </r>
       <r>   46.1332    0.0000 </r>
       <r>   46.2452    0.0000 </r>
       <r>   46.3762    0.0000 </r>
       <r>   46.5460    0.0000 </r>
       <r>   46.6591    0.0000 </r>
       <r>   46.8420    0.0000 </r>
       <r>   47.1012    0.0000 </r>
       <r>   47.4881    0.0000 </r>
       <r>   47.6588    0.0000 </r>
       <r>   47.8456    0.0000 </r>
      </set>
      <set comment="kpoint 2">
       <r>  -19.6616    1.0000 </r>
       <r>  -19.6616    1.0000 </r>
       <r>  -19.6448    1.0000 </r>
       <r>  -19.5950    1.0000 </r>
       <r>  -19.5950    1.0000 </r>
       <r>  -19.4122    1.0000 </r>
       <r>  -19.4122    1.0000 </r>
       <r>  -19.3998    1.0000 </r>
       <r>  -19.3660    1.0000 </r>
       <r>  -19.3660    1.0000 </r>
       <r>   -7.3660    1.0000 </r>
       <r>    1.8119    1.0000 </r>
       <r>    4.2556    1.0000 </r>
       <r>    4.2556    1.0000 </r>
       <r>    6.0512    0.0000 </r>
       <r>    8.1416    0.0000 </r>
       <r>    8.1416    0.0000 </r>
       <r>    9.1373    0.0000 </r>
       <r>   12.9492    0.0000 </r>
       <r>   13.5195    0.0000 </r>
       <r>   13.5195    0.0000 </r>
       <r>   15.1598    0.0000 </r>
       <r>   18.4199    0.0000 </r>
       <r>   18.4199    0.0000 </r>
       <r>   21.3078    0.0000 </r>
       <r>   25.9727    0.0000 </r>
       <r>   25.9727    0.0000 </r>
       <r>   26.1173    0.0000 </r>
       <r>   31.0166    0.0000 </r>
       <r>   31.0167    0.0000 </r>
       <r>   31.5791    0.0000 </r>
       <r>   32.6524    0.0000 </r>
       <r>   32.6524    0.0000 </r>
       <r>   35.0457    0.0000 </r>
       <r>   38.1163    0.0000 </r>
       <r>   38.1212    0.0000 </r>
       <r>   38.1234    0.0000 </r>
       <r>   39.1820    0.0000 </r>
       <r>   39.1823    0.0000 </r>
       <r>   41.6690    0.0000 </r>
       <r>   41.8681    0.0000 </r>
       <r>   41.9025    0.0000 </r>
       <r>   42.5799    0.0000 </r>
       <r>   42.5978    0.0000 </r>
       <r>   42.6513    0.0000 </r>
       <r>   42.7408    0.0000 </r>
       <r>   44.9277    0.0000 </r>
       <r>   45.8293    0.0000 </r>
       <r>   45.9467    0.0000 </r>
       <r>   46.1315    0.0000 </r>
       <r>   47.9847    0.0000 </r>
       <r>   48.1993    0.0000 </r>
       <r>   49.8819    0.0000 </r>
       <r>   50.8208    0.0000 </r>
      </set>
      <set comment="kpoint 3">
       <r>  -19.6721    1.0000 </r>
       <r>  -19.6721    1.0000 </r>
       <r>  -19.6355    1.0000 </r>
       <r>  -19.5753    1.0000 </r>
       <r>  -19.5753    1.0000 </r>
       <r>  -19.4269    1.0000 </r>
       <r>  -19.4269    1.0000 </r>
       <r>  -19.4101    1.0000 </r>
       <r>  -19.3552    1.0000 </r>
       <r>  -19.3552    1.0000 </r>
       <r>   -6.4339    1.0000 </r>
       <r>   -1.1174    1.0000 </r>
       <r>    3.6005    1.0000 </r>
       <r>    3.6005    1.0000 </r>
       <r>    5.5350    0.0000 </r>
       <r>    8.7190    0.0000 </r>
       <r>    8.7190    0.0000 </r>
       <r>   12.0102    0.0000 </r>
       <r>   13.0313    0.0000 </r>
       <r>   14.1122    0.0000 </r>
       <r>   14.1122    0.0000 </r>
       <r>   17.4421    0.0000 </r>
       <r>   21.0463    0.0000 </r>
       <r>   21.0463    0.0000 </r>
       <r>   22.1875    0.0000 </r>
       <r>   22.4615    0.0000 </r>
       <r>   22.4615    0.0000 </r>
       <r>   25.5611    0.0000 </r>
       <r>   31.4404    0.0000 </r>
       <r>   31.9161    0.0000 </r>
       <r>   31.9161    0.0000 </r>
       <r>   32.2904    0.0000 </r>
       <r>   32.8523    0.0000 </r>
       <r>   32.8523    0.0000 </r>
       <r>   33.4661    0.0000 </r>
       <r>   33.4661    0.0000 </r>
       <r>   36.4162    0.0000 </r>
       <r>   38.0497    0.0000 </r>
       <r>   38.9447    0.0000 </r>
       <r>   38.9455    0.0000 </r>
       <r>   39.2929    0.0000 </r>
       <r>   39.2930    0.0000 </r>
       <r>   39.7338    0.0000 </r>
       <r>   40.9096    0.0000 </r>
       <r>   44.0959    0.0000 </r>
       <r>   44.9351    0.0000 </r>
       <r>   45.0232    0.0000 </r>
       <r>   45.8131    0.0000 </r>
       <r>   45.8301    0.0000 </r>
       <r>   47.1801    0.0000 </r>
       <r>   47.2378    0.0000 </r>
       <r>   47.5968    0.0000 </r>
       <r>   48.7698    0.0000 </r>
       <r>   53.0146    0.0000 </r>
      </set>
      <set comment="kpoint 4">
       <r>  -19.6745    1.0000 </r>
       <r>  -19.6745    1.0000 </r>
       <r>  -19.6306    1.0000 </r>
       <r>  -19.5698    1.0000 </r>
       <r>  -19.5698    1.0000 </r>
       <r>  -19.4302    1.0000 </r>
       <r>  -19.4302    1.0000 </r>
       <r>  -19.4154    1.0000 </r>
       <r>  -19.3524    1.0000 </r>
       <r>  -19.3524    1.0000 </r>
       <r>   -5.5994    1.0000 </r>
       <r>   -2.6443    1.0000 </r>
       <r>    3.3570    1.0000 </r>
       <r>    3.3570    1.0000 </r>
       <r>    5.3222    0.0000 </r>
       <r>    8.7153    0.0000 </r>
       <r>    8.7153    0.0000 </r>
       <r>   12.2191    0.0000 </r>
       <r>   15.6138    0.0000 </r>
       <r>   16.1108    0.0000 </r>
       <r>   16.3042    0.0000 </r>
       <r>   16.3042    0.0000 </r>
       <r>   17.6985    0.0000 </r>
       <r>   17.6985    0.0000 </r>
       <r>   23.9630    0.0000 </r>
       <r>   26.2840    0.0000 </r>
       <r>   26.8447    0.0000 </r>
       <r>   26.8447    0.0000 </r>
       <r>   27.6388    0.0000 </r>
       <r>   27.6388    0.0000 </r>
       <r>   30.7004    0.0000 </r>
       <r>   31.2762    0.0000 </r>
       <r>   32.6092    0.0000 </r>
       <r>   32.6092    0.0000 </r>
       <r>   32.7801    0.0000 </r>
       <r>   34.0478    0.0000 </r>
       <r>   34.0478    0.0000 </r>
       <r>   37.6580    0.0000 </r>
       <r>   37.6580    0.0000 </r>
       <r>   37.8111    0.0000 </r>
       <r>   37.8112    0.0000 </r>
       <r>   38.4836    0.0000 </r>
       <r>   38.5428    0.0000 </r>
       <r>   39.5192    0.0000 </r>
       <r>   43.7222    0.0000 </r>
       <r>   45.7212    0.0000 </r>
       <r>   45.7477    0.0000 </r>
       <r>   46.3765    0.0000 </r>
       <r>   46.4396    0.0000 </r>
       <r>   47.6163    0.0000 </r>
       <r>   52.4515    0.0000 </r>
       <r>   53.0664    0.0000 </r>
       <r>   53.8095    0.0000 </r>
       <r>   54.5013    0.0000 </r>
      </set>
      <set comment="kpoint 5">
       <r>  -19.6591    1.0000 </r>
       <r>  -19.6591    1.0000 </r>
       <r>  -19.6589    1.0000 </r>
       <r>  -19.5969    1.0000 </r>
       <r>  -19.5740    1.0000 </r>
       <r>  -19.4473    1.0000 </r>
       <r>  -19.3954    1.0000 </r>
       <r>  -19.3796    1.0000 </r>
       <r>  -19.3796    1.0000 </r>
       <r>  -19.3632    1.0000 </r>
       <r>   -7.2516    1.0000 </r>
       <r>    1.8658    1.0000 </r>
       <r>    3.4939    1.0000 </r>
       <r>    3.4939    1.0000 </r>
       <r>    6.5525    0.0000 </r>
       <r>    7.7678    0.0000 </r>
       <r>    9.3016    0.0000 </r>
       <r>    9.3016    0.0000 </r>
       <r>   12.0386    0.0000 </r>
       <r>   13.5301    0.0000 </r>
       <r>   15.1488    0.0000 </r>
       <r>   16.8972    0.0000 </r>
       <r>   16.8972    0.0000 </r>
       <r>   17.8287    0.0000 </r>
       <r>   22.7194    0.0000 </r>
       <r>   25.5436    0.0000 </r>
       <r>   25.5436    0.0000 </r>
       <r>   26.7052    0.0000 </r>
       <r>   26.9062    0.0000 </r>
       <r>   31.3913    0.0000 </r>
       <r>   31.3913    0.0000 </r>
       <r>   32.3086    0.0000 </r>
       <r>   35.0580    0.0000 </r>
       <r>   37.6181    0.0000 </r>
       <r>   37.6871    0.0000 </r>
       <r>   37.6875    0.0000 </r>
       <r>   38.0188    0.0000 </r>
       <r>   38.0208    0.0000 </r>
       <r>   38.3906    0.0000 </r>
       <r>   38.8911    0.0000 </r>
       <r>   41.5760    0.0000 </r>
       <r>   42.1968    0.0000 </r>
       <r>   42.2162    0.0000 </r>
       <r>   42.9428    0.0000 </r>
       <r>   43.6071    0.0000 </r>
       <r>   43.7004    0.0000 </r>
       <r>   44.5363    0.0000 </r>
       <r>   44.7669    0.0000 </r>
       <r>   45.0936    0.0000 </r>
       <r>   48.3987    0.0000 </r>
       <r>   48.7080    0.0000 </r>
       <r>   49.1384    0.0000 </r>
       <r>   49.9130    0.0000 </r>
       <r>   50.7419    0.0000 </r>
      </set>
      <set comment="kpoint 6">
       <r>  -19.6800    1.0000 </r>
       <r>  -19.6697    1.0000 </r>
       <r>  -19.6384    1.0000 </r>
       <r>  -19.5755    1.0000 </r>
       <r>  -19.5476    1.0000 </r>
       <r>  -19.4735    1.0000 </r>
       <r>  -19.4181    1.0000 </r>
       <r>  -19.3931    1.0000 </r>
       <r>  -19.3612    1.0000 </r>
       <r>  -19.3472    1.0000 </r>
       <r>   -6.4981    1.0000 </r>
       <r>   -0.4066    1.0000 </r>
       <r>    2.5458    1.0000 </r>
       <r>    2.8737    1.0000 </r>
       <r>    6.7702    0.0000 </r>
       <r>    8.1037    0.0000 </r>
       <r>    9.9638    0.0000 </r>
       <r>   10.2070    0.0000 </r>
       <r>   13.5490    0.0000 </r>
       <r>   14.8250    0.0000 </r>
       <r>   15.4477    0.0000 </r>
       <r>   17.1670    0.0000 </r>
       <r>   19.7471    0.0000 </r>
       <r>   21.0210    0.0000 </r>
       <r>   21.3904    0.0000 </r>
       <r>   21.5488    0.0000 </r>
       <r>   25.7531    0.0000 </r>
       <r>   26.5658    0.0000 </r>
       <r>   26.8866    0.0000 </r>
       <r>   28.3324    0.0000 </r>
       <r>   31.3376    0.0000 </r>
       <r>   32.1235    0.0000 </r>
       <r>   34.3653    0.0000 </r>
       <r>   34.4295    0.0000 </r>
       <r>   34.6254    0.0000 </r>
       <r>   35.7190    0.0000 </r>
       <r>   37.2347    0.0000 </r>
       <r>   37.5223    0.0000 </r>
       <r>   38.7095    0.0000 </r>
       <r>   39.2227    0.0000 </r>
       <r>   39.9610    0.0000 </r>
       <r>   40.0469    0.0000 </r>
       <r>   40.8932    0.0000 </r>
       <r>   41.8526    0.0000 </r>
       <r>   43.0854    0.0000 </r>
       <r>   44.0760    0.0000 </r>
       <r>   44.9918    0.0000 </r>
       <r>   46.4953    0.0000 </r>
       <r>   46.8001    0.0000 </r>
       <r>   47.0583    0.0000 </r>
       <r>   48.5316    0.0000 </r>
       <r>   48.9938    0.0000 </r>
       <r>   49.7144    0.0000 </r>
       <r>   51.2318    0.0000 </r>
      </set>
      <set comment="kpoint 7">
       <r>  -19.6915    1.0000 </r>
       <r>  -19.6780    1.0000 </r>
       <r>  -19.6138    1.0000 </r>
       <r>  -19.5558    1.0000 </r>
       <r>  -19.5470    1.0000 </r>
       <r>  -19.4680    1.0000 </r>
       <r>  -19.4409    1.0000 </r>
       <r>  -19.4206    1.0000 </r>
       <r>  -19.3478    1.0000 </r>
       <r>  -19.3345    1.0000 </r>
       <r>   -5.4323    1.0000 </r>
       <r>   -2.4138    1.0000 </r>
       <r>    1.7303    1.0000 </r>
       <r>    2.7996    1.0000 </r>
       <r>    6.6543    0.0000 </r>
       <r>    8.7787    0.0000 </r>
       <r>    9.9402    0.0000 </r>
       <r>   11.4328    0.0000 </r>
       <r>   14.3380    0.0000 </r>
       <r>   16.1442    0.0000 </r>
       <r>   16.3468    0.0000 </r>
       <r>   16.9077    0.0000 </r>
       <r>   18.2275    0.0000 </r>
       <r>   21.6136    0.0000 </r>
       <r>   23.2772    0.0000 </r>
       <r>   24.1469    0.0000 </r>
       <r>   25.5431    0.0000 </r>
       <r>   26.4362    0.0000 </r>
       <r>   27.6733    0.0000 </r>
       <r>   28.5420    0.0000 </r>
       <r>   28.9412    0.0000 </r>
       <r>   31.1190    0.0000 </r>
       <r>   31.1904    0.0000 </r>
       <r>   32.5421    0.0000 </r>
       <r>   32.7992    0.0000 </r>
       <r>   32.9179    0.0000 </r>
       <r>   34.2220    0.0000 </r>
       <r>   35.9102    0.0000 </r>
       <r>   37.4655    0.0000 </r>
       <r>   38.1315    0.0000 </r>
       <r>   38.9106    0.0000 </r>
       <r>   39.5834    0.0000 </r>
       <r>   41.6301    0.0000 </r>
       <r>   42.6860    0.0000 </r>
       <r>   42.7948    0.0000 </r>
       <r>   44.5787    0.0000 </r>
       <r>   44.9265    0.0000 </r>
       <r>   47.4059    0.0000 </r>
       <r>   49.0084    0.0000 </r>
       <r>   50.1289    0.0000 </r>
       <r>   50.4196    0.0000 </r>
       <r>   51.1909    0.0000 </r>
       <r>   51.9132    0.0000 </r>
       <r>   54.1972    0.0000 </r>
      </set>
      <set comment="kpoint 8">
       <r>  -19.6880    1.0000 </r>
       <r>  -19.6815    1.0000 </r>
       <r>  -19.6095    1.0000 </r>
       <r>  -19.5681    1.0000 </r>
       <r>  -19.5476    1.0000 </r>
       <r>  -19.4546    1.0000 </r>
       <r>  -19.4370    1.0000 </r>
       <r>  -19.4302    1.0000 </r>
       <r>  -19.3428    1.0000 </r>
       <r>  -19.3400    1.0000 </r>
       <r>   -5.7700    1.0000 </r>
       <r>   -1.8688    1.0000 </r>
       <r>    1.5154    1.0000 </r>
       <r>    3.2853    1.0000 </r>
       <r>    6.7954    0.0000 </r>
       <r>    9.0514    0.0000 </r>
       <r>    9.3910    0.0000 </r>
       <r>   11.7363    0.0000 </r>
       <r>   13.4815    0.0000 </r>
       <r>   14.2023    0.0000 </r>
       <r>   16.1773    0.0000 </r>
       <r>   17.8584    0.0000 </r>
       <r>   19.8105    0.0000 </r>
       <r>   21.5824    0.0000 </r>
       <r>   21.7894    0.0000 </r>
       <r>   23.3157    0.0000 </r>
       <r>   26.0639    0.0000 </r>
       <r>   27.4565    0.0000 </r>
       <r>   28.0463    0.0000 </r>
       <r>   28.5031    0.0000 </r>
       <r>   29.3435    0.0000 </r>
       <r>   29.4719    0.0000 </r>
       <r>   32.2208    0.0000 </r>
       <r>   32.5760    0.0000 </r>
       <r>   32.9890    0.0000 </r>
       <r>   33.3312    0.0000 </r>
       <r>   35.2296    0.0000 </r>
       <r>   37.0798    0.0000 </r>
       <r>   38.3171    0.0000 </r>
       <r>   38.9281    0.0000 </r>
       <r>   39.3476    0.0000 </r>
       <r>   39.4067    0.0000 </r>
       <r>   41.6142    0.0000 </r>
       <r>   41.8581    0.0000 </r>
       <r>   42.0199    0.0000 </r>
       <r>   44.8574    0.0000 </r>
       <r>   44.9795    0.0000 </r>
       <r>   45.9209    0.0000 </r>
       <r>   46.4684    0.0000 </r>
       <r>   48.2825    0.0000 </r>
       <r>   51.0485    0.0000 </r>
       <r>   51.9577    0.0000 </r>
       <r>   52.9983    0.0000 </r>
       <r>   53.9282    0.0000 </r>
      </set>
      <set comment="kpoint 9">
       <r>  -19.6760    1.0000 </r>
       <r>  -19.6711    1.0000 </r>
       <r>  -19.6325    1.0000 </r>
       <r>  -19.5855    1.0000 </r>
       <r>  -19.5667    1.0000 </r>
       <r>  -19.4411    1.0000 </r>
       <r>  -19.4260    1.0000 </r>
       <r>  -19.3965    1.0000 </r>
       <r>  -19.3634    1.0000 </r>
       <r>  -19.3488    1.0000 </r>
       <r>   -6.8223    1.0000 </r>
       <r>    0.2966    1.0000 </r>
       <r>    2.2695    1.0000 </r>
       <r>    4.0731    1.0000 </r>
       <r>    6.9711    0.0000 </r>
       <r>    8.4685    0.0000 </r>
       <r>    8.7527    0.0000 </r>
       <r>   10.1176    0.0000 </r>
       <r>   12.4830    0.0000 </r>
       <r>   14.4485    0.0000 </r>
       <r>   14.4959    0.0000 </r>
       <r>   17.0625    0.0000 </r>
       <r>   18.2120    0.0000 </r>
       <r>   20.9943    0.0000 </r>
       <r>   21.7882    0.0000 </r>
       <r>   24.0290    0.0000 </r>
       <r>   25.5807    0.0000 </r>
       <r>   26.2614    0.0000 </r>
       <r>   26.7443    0.0000 </r>
       <r>   28.3438    0.0000 </r>
       <r>   31.7103    0.0000 </r>
       <r>   33.8855    0.0000 </r>
       <r>   34.8068    0.0000 </r>
       <r>   35.1471    0.0000 </r>
       <r>   35.7091    0.0000 </r>
       <r>   35.9261    0.0000 </r>
       <r>   38.2763    0.0000 </r>
       <r>   38.5981    0.0000 </r>
       <r>   39.0508    0.0000 </r>
       <r>   39.4380    0.0000 </r>
       <r>   39.6259    0.0000 </r>
       <r>   40.6502    0.0000 </r>
       <r>   41.5180    0.0000 </r>
       <r>   41.5199    0.0000 </r>
       <r>   42.2131    0.0000 </r>
       <r>   42.2984    0.0000 </r>
       <r>   44.2716    0.0000 </r>
       <r>   44.4160    0.0000 </r>
       <r>   46.8648    0.0000 </r>
       <r>   47.1242    0.0000 </r>
       <r>   47.6892    0.0000 </r>
       <r>   48.6258    0.0000 </r>
       <r>   49.5359    0.0000 </r>
       <r>   51.7865    0.0000 </r>
      </set>
      <set comment="kpoint 10">
       <r>  -19.6762    1.0000 </r>
       <r>  -19.6762    1.0000 </r>
       <r>  -19.6446    1.0000 </r>
       <r>  -19.5528    1.0000 </r>
       <r>  -19.5241    1.0000 </r>
       <r>  -19.5050    1.0000 </r>
       <r>  -19.4364    1.0000 </r>
       <r>  -19.3815    1.0000 </r>
       <r>  -19.3511    1.0000 </r>
       <r>  -19.3511    1.0000 </r>
       <r>   -5.9309    1.0000 </r>
       <r>   -1.1483    1.0000 </r>
       <r>    2.1663    1.0000 </r>
       <r>    2.1663    1.0000 </r>
       <r>    5.6880    0.0000 </r>
       <r>    7.0194    0.0000 </r>
       <r>   12.2372    0.0000 </r>
       <r>   12.2372    0.0000 </r>
       <r>   13.5600    0.0000 </r>
       <r>   16.5812    0.0000 </r>
       <r>   16.8775    0.0000 </r>
       <r>   19.7865    0.0000 </r>
       <r>   19.7865    0.0000 </r>
       <r>   20.3273    0.0000 </r>
       <r>   20.8046    0.0000 </r>
       <r>   20.8046    0.0000 </r>
       <r>   22.3605    0.0000 </r>
       <r>   23.3540    0.0000 </r>
       <r>   29.3714    0.0000 </r>
       <r>   30.4930    0.0000 </r>
       <r>   30.5611    0.0000 </r>
       <r>   30.5611    0.0000 </r>
       <r>   31.6395    0.0000 </r>
       <r>   32.7549    0.0000 </r>
       <r>   32.7550    0.0000 </r>
       <r>   33.7458    0.0000 </r>
       <r>   36.9084    0.0000 </r>
       <r>   38.8827    0.0000 </r>
       <r>   39.0215    0.0000 </r>
       <r>   39.0228    0.0000 </r>
       <r>   41.8025    0.0000 </r>
       <r>   41.8034    0.0000 </r>
       <r>   42.6306    0.0000 </r>
       <r>   43.1853    0.0000 </r>
       <r>   43.4214    0.0000 </r>
       <r>   45.1463    0.0000 </r>
       <r>   45.1798    0.0000 </r>
       <r>   45.3531    0.0000 </r>
       <r>   45.4506    0.0000 </r>
       <r>   45.8433    0.0000 </r>
       <r>   45.9077    0.0000 </r>
       <r>   46.2503    0.0000 </r>
       <r>   47.8297    0.0000 </r>
       <r>   52.8851    0.0000 </r>
      </set>
      <set comment="kpoint 11">
       <r>  -19.6940    1.0000 </r>
       <r>  -19.6826    1.0000 </r>
       <r>  -19.6097    1.0000 </r>
       <r>  -19.5432    1.0000 </r>
       <r>  -19.5257    1.0000 </r>
       <r>  -19.4843    1.0000 </r>
       <r>  -19.4650    1.0000 </r>
       <r>  -19.4192    1.0000 </r>
       <r>  -19.3408    1.0000 </r>
       <r>  -19.3302    1.0000 </r>
       <r>   -4.8603    1.0000 </r>
       <r>   -2.6431    1.0000 </r>
       <r>    1.0614    1.0000 </r>
       <r>    2.0050    1.0000 </r>
       <r>    6.0907    0.0000 </r>
       <r>    7.6881    0.0000 </r>
       <r>   12.0127    0.0000 </r>
       <r>   12.5705    0.0000 </r>
       <r>   15.4222    0.0000 </r>
       <r>   16.8128    0.0000 </r>
       <r>   17.0049    0.0000 </r>
       <r>   18.9311    0.0000 </r>
       <r>   19.1013    0.0000 </r>
       <r>   21.4599    0.0000 </r>
       <r>   22.6170    0.0000 </r>
       <r>   22.8519    0.0000 </r>
       <r>   23.6594    0.0000 </r>
       <r>   24.6456    0.0000 </r>
       <r>   25.3785    0.0000 </r>
       <r>   27.8547    0.0000 </r>
       <r>   28.0543    0.0000 </r>
       <r>   29.0230    0.0000 </r>
       <r>   30.6759    0.0000 </r>
       <r>   32.6147    0.0000 </r>
       <r>   33.5498    0.0000 </r>
       <r>   34.1809    0.0000 </r>
       <r>   36.1199    0.0000 </r>
       <r>   36.5854    0.0000 </r>
       <r>   38.0278    0.0000 </r>
       <r>   38.7780    0.0000 </r>
       <r>   39.0724    0.0000 </r>
       <r>   40.3941    0.0000 </r>
       <r>   41.7338    0.0000 </r>
       <r>   42.2229    0.0000 </r>
       <r>   43.3626    0.0000 </r>
       <r>   45.2204    0.0000 </r>
       <r>   46.0457    0.0000 </r>
       <r>   46.9212    0.0000 </r>
       <r>   47.2464    0.0000 </r>
       <r>   48.7510    0.0000 </r>
       <r>   49.7059    0.0000 </r>
       <r>   51.8482    0.0000 </r>
       <r>   52.2684    0.0000 </r>
       <r>   53.1146    0.0000 </r>
      </set>
      <set comment="kpoint 12">
       <r>  -19.7025    1.0000 </r>
       <r>  -19.6854    1.0000 </r>
       <r>  -19.5936    1.0000 </r>
       <r>  -19.5212    1.0000 </r>
       <r>  -19.5151    1.0000 </r>
       <r>  -19.5008    1.0000 </r>
       <r>  -19.4811    1.0000 </r>
       <r>  -19.4356    1.0000 </r>
       <r>  -19.3373    1.0000 </r>
       <r>  -19.3221    1.0000 </r>
       <r>   -4.7175    1.0000 </r>
       <r>   -2.7967    1.0000 </r>
       <r>    0.3552    1.0000 </r>
       <r>    2.4558    1.0000 </r>
       <r>    6.4874    0.0000 </r>
       <r>   10.7454    0.0000 </r>
       <r>   11.3745    0.0000 </r>
       <r>   11.3764    0.0000 </r>
       <r>   12.2716    0.0000 </r>
       <r>   14.0934    0.0000 </r>
       <r>   18.6047    0.0000 </r>
       <r>   19.0100    0.0000 </r>
       <r>   20.8927    0.0000 </r>
       <r>   22.2430    0.0000 </r>
       <r>   23.1867    0.0000 </r>
       <r>   23.9569    0.0000 </r>
       <r>   23.9628    0.0000 </r>
       <r>   26.3293    0.0000 </r>
       <r>   27.1141    0.0000 </r>
       <r>   27.5172    0.0000 </r>
       <r>   27.5759    0.0000 </r>
       <r>   27.9492    0.0000 </r>
       <r>   30.9049    0.0000 </r>
       <r>   31.5269    0.0000 </r>
       <r>   31.6833    0.0000 </r>
       <r>   33.3947    0.0000 </r>
       <r>   33.4327    0.0000 </r>
       <r>   36.2658    0.0000 </r>
       <r>   38.3242    0.0000 </r>
       <r>   39.1902    0.0000 </r>
       <r>   39.2788    0.0000 </r>
       <r>   39.8886    0.0000 </r>
       <r>   40.2161    0.0000 </r>
       <r>   40.5772    0.0000 </r>
       <r>   45.8941    0.0000 </r>
       <r>   47.0531    0.0000 </r>
       <r>   47.6509    0.0000 </r>
       <r>   48.7682    0.0000 </r>
       <r>   48.8670    0.0000 </r>
       <r>   50.0995    0.0000 </r>
       <r>   50.3131    0.0000 </r>
       <r>   51.5864    0.0000 </r>
       <r>   52.5153    0.0000 </r>
       <r>   53.8134    0.0000 </r>
      </set>
      <set comment="kpoint 13">
       <r>  -19.6840    1.0000 </r>
       <r>  -19.6840    1.0000 </r>
       <r>  -19.5965    1.0000 </r>
       <r>  -19.5965    1.0000 </r>
       <r>  -19.4940    1.0000 </r>
       <r>  -19.4940    1.0000 </r>
       <r>  -19.4343    1.0000 </r>
       <r>  -19.4343    1.0000 </r>
       <r>  -19.3378    1.0000 </r>
       <r>  -19.3378    1.0000 </r>
       <r>   -3.8320    1.0000 </r>
       <r>   -3.8320    1.0000 </r>
       <r>    1.6913    1.0000 </r>
       <r>    1.6913    1.0000 </r>
       <r>    5.8039    0.0000 </r>
       <r>    5.8039    0.0000 </r>
       <r>   14.3972    0.0000 </r>
       <r>   14.3972    0.0000 </r>
       <r>   16.6379    0.0000 </r>
       <r>   16.6379    0.0000 </r>
       <r>   18.0379    0.0000 </r>
       <r>   18.0379    0.0000 </r>
       <r>   18.9819    0.0000 </r>
       <r>   18.9819    0.0000 </r>
       <r>   24.2876    0.0000 </r>
       <r>   24.2876    0.0000 </r>
       <r>   24.3280    0.0000 </r>
       <r>   24.3280    0.0000 </r>
       <r>   24.6390    0.0000 </r>
       <r>   24.6390    0.0000 </r>
       <r>   25.4178    0.0000 </r>
       <r>   25.4178    0.0000 </r>
       <r>   34.0533    0.0000 </r>
       <r>   34.0534    0.0000 </r>
       <r>   35.1215    0.0000 </r>
       <r>   35.1215    0.0000 </r>
       <r>   37.1054    0.0000 </r>
       <r>   37.1055    0.0000 </r>
       <r>   38.7671    0.0000 </r>
       <r>   38.7673    0.0000 </r>
       <r>   39.9891    0.0000 </r>
       <r>   39.9901    0.0000 </r>
       <r>   41.2260    0.0000 </r>
       <r>   41.2291    0.0000 </r>
       <r>   42.8085    0.0000 </r>
       <r>   42.8108    0.0000 </r>
       <r>   44.5198    0.0000 </r>
       <r>   44.5459    0.0000 </r>
       <r>   45.4600    0.0000 </r>
       <r>   45.4686    0.0000 </r>
       <r>   52.6918    0.0000 </r>
       <r>   52.9564    0.0000 </r>
       <r>   53.7189    0.0000 </r>
       <r>   54.0681    0.0000 </r>
      </set>
      <set comment="kpoint 14">
       <r>  -19.6897    1.0000 </r>
       <r>  -19.6867    1.0000 </r>
       <r>  -19.6090    1.0000 </r>
       <r>  -19.5542    1.0000 </r>
       <r>  -19.5183    1.0000 </r>
       <r>  -19.5016    1.0000 </r>
       <r>  -19.4411    1.0000 </r>
       <r>  -19.4222    1.0000 </r>
       <r>  -19.3382    1.0000 </r>
       <r>  -19.3369    1.0000 </r>
       <r>   -5.5870    1.0000 </r>
       <r>   -1.7257    1.0000 </r>
       <r>    1.1175    1.0000 </r>
       <r>    2.3455    1.0000 </r>
       <r>    7.7772    0.0000 </r>
       <r>    8.2117    0.0000 </r>
       <r>    9.3777    0.0000 </r>
       <r>   12.0150    0.0000 </r>
       <r>   14.3957    0.0000 </r>
       <r>   14.9817    0.0000 </r>
       <r>   17.4854    0.0000 </r>
       <r>   18.2761    0.0000 </r>
       <r>   19.0850    0.0000 </r>
       <r>   21.3571    0.0000 </r>
       <r>   21.5382    0.0000 </r>
       <r>   23.3795    0.0000 </r>
       <r>   24.8462    0.0000 </r>
       <r>   26.9677    0.0000 </r>
       <r>   27.3489    0.0000 </r>
       <r>   27.8725    0.0000 </r>
       <r>   28.5200    0.0000 </r>
       <r>   30.0154    0.0000 </r>
       <r>   30.8092    0.0000 </r>
       <r>   32.7403    0.0000 </r>
       <r>   33.3717    0.0000 </r>
       <r>   34.4655    0.0000 </r>
       <r>   35.3000    0.0000 </r>
       <r>   36.3497    0.0000 </r>
       <r>   36.3971    0.0000 </r>
       <r>   39.7161    0.0000 </r>
       <r>   39.9447    0.0000 </r>
       <r>   40.5018    0.0000 </r>
       <r>   41.4063    0.0000 </r>
       <r>   42.6784    0.0000 </r>
       <r>   45.2235    0.0000 </r>
       <r>   45.4636    0.0000 </r>
       <r>   45.9988    0.0000 </r>
       <r>   46.4805    0.0000 </r>
       <r>   47.4151    0.0000 </r>
       <r>   47.8564    0.0000 </r>
       <r>   48.8093    0.0000 </r>
       <r>   49.3332    0.0000 </r>
       <r>   50.7193    0.0000 </r>
       <r>   53.2225    0.0000 </r>
      </set>
      <set comment="kpoint 15">
       <r>  -19.6999    1.0000 </r>
       <r>  -19.6895    1.0000 </r>
       <r>  -19.5861    1.0000 </r>
       <r>  -19.5353    1.0000 </r>
       <r>  -19.5116    1.0000 </r>
       <r>  -19.5031    1.0000 </r>
       <r>  -19.4689    1.0000 </r>
       <r>  -19.4408    1.0000 </r>
       <r>  -19.3343    1.0000 </r>
       <r>  -19.3244    1.0000 </r>
       <r>   -4.7116    1.0000 </r>
       <r>   -2.8331    1.0000 </r>
       <r>    0.6725    1.0000 </r>
       <r>    1.9094    1.0000 </r>
       <r>    8.0381    0.0000 </r>
       <r>    8.6255    0.0000 </r>
       <r>   11.0619    0.0000 </r>
       <r>   11.0803    0.0000 </r>
       <r>   13.1374    0.0000 </r>
       <r>   16.8906    0.0000 </r>
       <r>   16.9905    0.0000 </r>
       <r>   17.6922    0.0000 </r>
       <r>   21.4055    0.0000 </r>
       <r>   22.0438    0.0000 </r>
       <r>   22.8992    0.0000 </r>
       <r>   23.7613    0.0000 </r>
       <r>   24.2383    0.0000 </r>
       <r>   26.5972    0.0000 </r>
       <r>   27.0653    0.0000 </r>
       <r>   27.5447    0.0000 </r>
       <r>   28.0092    0.0000 </r>
       <r>   29.5106    0.0000 </r>
       <r>   30.1102    0.0000 </r>
       <r>   30.7949    0.0000 </r>
       <r>   32.1270    0.0000 </r>
       <r>   33.3533    0.0000 </r>
       <r>   34.9630    0.0000 </r>
       <r>   35.1980    0.0000 </r>
       <r>   35.5082    0.0000 </r>
       <r>   35.9668    0.0000 </r>
       <r>   40.5822    0.0000 </r>
       <r>   41.2470    0.0000 </r>
       <r>   44.1270    0.0000 </r>
       <r>   44.1500    0.0000 </r>
       <r>   44.9553    0.0000 </r>
       <r>   45.2528    0.0000 </r>
       <r>   46.5637    0.0000 </r>
       <r>   47.7326    0.0000 </r>
       <r>   47.8906    0.0000 </r>
       <r>   48.3771    0.0000 </r>
       <r>   48.7617    0.0000 </r>
       <r>   51.5987    0.0000 </r>
       <r>   52.3790    0.0000 </r>
       <r>   54.0597    0.0000 </r>
      </set>
      <set comment="kpoint 16">
       <r>  -19.6953    1.0000 </r>
       <r>  -19.6953    1.0000 </r>
       <r>  -19.5656    1.0000 </r>
       <r>  -19.5656    1.0000 </r>
       <r>  -19.4979    1.0000 </r>
       <r>  -19.4979    1.0000 </r>
       <r>  -19.4598    1.0000 </r>
       <r>  -19.4598    1.0000 </r>
       <r>  -19.3279    1.0000 </r>
       <r>  -19.3279    1.0000 </r>
       <r>   -3.7532    1.0000 </r>
       <r>   -3.7532    1.0000 </r>
       <r>    1.0637    1.0000 </r>
       <r>    1.0637    1.0000 </r>
       <r>    7.7173    0.0000 </r>
       <r>    7.7173    0.0000 </r>
       <r>   11.5673    0.0000 </r>
       <r>   11.5673    0.0000 </r>
       <r>   16.0504    0.0000 </r>
       <r>   16.0504    0.0000 </r>
       <r>   18.0805    0.0000 </r>
       <r>   18.0805    0.0000 </r>
       <r>   22.0276    0.0000 </r>
       <r>   22.0276    0.0000 </r>
       <r>   22.3519    0.0000 </r>
       <r>   22.3519    0.0000 </r>
       <r>   23.7751    0.0000 </r>
       <r>   23.7751    0.0000 </r>
       <r>   27.5601    0.0000 </r>
       <r>   27.5601    0.0000 </r>
       <r>   28.7821    0.0000 </r>
       <r>   28.7821    0.0000 </r>
       <r>   29.3968    0.0000 </r>
       <r>   29.3968    0.0000 </r>
       <r>   32.9046    0.0000 </r>
       <r>   32.9046    0.0000 </r>
       <r>   34.9701    0.0000 </r>
       <r>   34.9702    0.0000 </r>
       <r>   38.8121    0.0000 </r>
       <r>   38.8128    0.0000 </r>
       <r>   40.3663    0.0000 </r>
       <r>   40.3704    0.0000 </r>
       <r>   42.0033    0.0000 </r>
       <r>   42.0171    0.0000 </r>
       <r>   44.9554    0.0000 </r>
       <r>   44.9678    0.0000 </r>
       <r>   47.1347    0.0000 </r>
       <r>   47.2393    0.0000 </r>
       <r>   48.1235    0.0000 </r>
       <r>   48.4189    0.0000 </r>
       <r>   52.3087    0.0000 </r>
       <r>   52.9033    0.0000 </r>
       <r>   53.2113    0.0000 </r>
       <r>   53.6449    0.0000 </r>
      </set>
     </set>
     <set comment="spin 2">
      <set comment="kpoint 1">
       <r>  -19.6492    1.0000 </r>
       <r>  -19.6492    1.0000 </r>
       <r>  -19.6492    1.0000 </r>
       <r>  -19.6131    1.0000 </r>
       <r>  -19.6131    1.0000 </r>
       <r>  -19.3947    1.0000 </r>
       <r>  -19.3947    1.0000 </r>
       <r>  -19.3947    1.0000 </r>
       <r>  -19.3805    1.0000 </r>
       <r>  -19.3805    1.0000 </r>
       <r>   -7.7003    1.0000 </r>
       <r>    4.7782    1.0000 </r>
       <r>    4.7782    1.0000 </r>
       <r>    4.7782    1.0000 </r>
       <r>    5.3362    0.0000 </r>
       <r>    7.4468    0.0000 </r>
       <r>    7.4468    0.0000 </r>
       <r>    7.4468    0.0000 </r>
       <r>   11.6278    0.0000 </r>
       <r>   14.6731    0.0000 </r>
       <r>   14.6731    0.0000 </r>
       <r>   15.9412    0.0000 </r>
       <r>   15.9412    0.0000 </r>
       <r>   15.9412    0.0000 </r>
       <r>   19.0576    0.0000 </r>
       <r>   30.3738    0.0000 </r>
       <r>   30.3738    0.0000 </r>
       <r>   30.3738    0.0000 </r>
       <r>   31.2968    0.0000 </r>
       <r>   31.2968    0.0000 </r>
       <r>   31.2968    0.0000 </r>
       <r>   31.8638    0.0000 </r>
       <r>   31.8638    0.0000 </r>
       <r>   31.8638    0.0000 </r>
       <r>   32.8955    0.0000 </r>
       <r>   32.8955    0.0000 </r>
       <r>   39.9133    0.0000 </r>
       <r>   44.2225    0.0000 </r>
       <r>   44.7380    0.0000 </r>
       <r>   44.8018    0.0000 </r>
       <r>   44.9022    0.0000 </r>
       <r>   45.1462    0.0000 </r>
       <r>   45.2714    0.0000 </r>
       <r>   45.4061    0.0000 </r>
       <r>   46.0627    0.0000 </r>
       <r>   46.1133    0.0000 </r>
       <r>   46.3103    0.0000 </r>
       <r>   46.5397    0.0000 </r>
       <r>   46.6059    0.0000 </r>
       <r>   46.6405    0.0000 </r>
       <r>   47.1065    0.0000 </r>
       <r>   47.3696    0.0000 </r>
       <r>   47.6315    0.0000 </r>
       <r>   47.7388    0.0000 </r>
      </set>
      <set comment="kpoint 2">
       <r>  -19.6616    1.0000 </r>
       <r>  -19.6616    1.0000 </r>
       <r>  -19.6448    1.0000 </r>
       <r>  -19.5950    1.0000 </r>
       <r>  -19.5950    1.0000 </r>
       <r>  -19.4122    1.0000 </r>
       <r>  -19.4122    1.0000 </r>
       <r>  -19.3998    1.0000 </r>
       <r>  -19.3660    1.0000 </r>
       <r>  -19.3660    1.0000 </r>
       <r>   -7.3660    1.0000 </r>
       <r>    1.8119    1.0000 </r>
       <r>    4.2556    1.0000 </r>
       <r>    4.2556    1.0000 </r>
       <r>    6.0512    0.0000 </r>
       <r>    8.1416    0.0000 </r>
       <r>    8.1416    0.0000 </r>
       <r>    9.1373    0.0000 </r>
       <r>   12.9492    0.0000 </r>
       <r>   13.5195    0.0000 </r>
       <r>   13.5195    0.0000 </r>
       <r>   15.1598    0.0000 </r>
       <r>   18.4199    0.0000 </r>
       <r>   18.4199    0.0000 </r>
       <r>   21.3078    0.0000 </r>
       <r>   25.9727    0.0000 </r>
       <r>   25.9727    0.0000 </r>
       <r>   26.1173    0.0000 </r>
       <r>   31.0166    0.0000 </r>
       <r>   31.0166    0.0000 </r>
       <r>   31.5791    0.0000 </r>
       <r>   32.6524    0.0000 </r>
       <r>   32.6524    0.0000 </r>
       <r>   35.0456    0.0000 </r>
       <r>   38.1149    0.0000 </r>
       <r>   38.1211    0.0000 </r>
       <r>   38.1251    0.0000 </r>
       <r>   39.1812    0.0000 </r>
       <r>   39.1845    0.0000 </r>
       <r>   41.6560    0.0000 </r>
       <r>   41.8672    0.0000 </r>
       <r>   41.8796    0.0000 </r>
       <r>   42.5844    0.0000 </r>
       <r>   42.6430    0.0000 </r>
       <r>   42.6766    0.0000 </r>
       <r>   42.7903    0.0000 </r>
       <r>   44.8964    0.0000 </r>
       <r>   45.8717    0.0000 </r>
       <r>   45.9664    0.0000 </r>
       <r>   46.2548    0.0000 </r>
       <r>   47.5461    0.0000 </r>
       <r>   48.0238    0.0000 </r>
       <r>   48.7514    0.0000 </r>
       <r>   50.7827    0.0000 </r>
      </set>
      <set comment="kpoint 3">
       <r>  -19.6721    1.0000 </r>
       <r>  -19.6721    1.0000 </r>
       <r>  -19.6355    1.0000 </r>
       <r>  -19.5753    1.0000 </r>
       <r>  -19.5753    1.0000 </r>
       <r>  -19.4269    1.0000 </r>
       <r>  -19.4269    1.0000 </r>
       <r>  -19.4101    1.0000 </r>
       <r>  -19.3552    1.0000 </r>
       <r>  -19.3552    1.0000 </r>
       <r>   -6.4339    1.0000 </r>
       <r>   -1.1174    1.0000 </r>
       <r>    3.6005    1.0000 </r>
       <r>    3.6005    1.0000 </r>
       <r>    5.5350    0.0000 </r>
       <r>    8.7190    0.0000 </r>
       <r>    8.7190    0.0000 </r>
       <r>   12.0102    0.0000 </r>
       <r>   13.0313    0.0000 </r>
       <r>   14.1122    0.0000 </r>
       <r>   14.1122    0.0000 </r>
       <r>   17.4421    0.0000 </r>
       <r>   21.0463    0.0000 </r>
       <r>   21.0463    0.0000 </r>
       <r>   22.1875    0.0000 </r>
       <r>   22.4615    0.0000 </r>
       <r>   22.4615    0.0000 </r>
       <r>   25.5611    0.0000 </r>
       <r>   31.4404    0.0000 </r>
       <r>   31.9161    0.0000 </r>
       <r>   31.9161    0.0000 </r>
       <r>   32.2904    0.0000 </r>
       <r>   32.8523    0.0000 </r>
       <r>   32.8523    0.0000 </r>
       <r>   33.4661    0.0000 </r>
       <r>   33.4661    0.0000 </r>
       <r>   36.4162    0.0000 </r>
       <r>   38.0497    0.0000 </r>
       <r>   38.9447    0.0000 </r>
       <r>   38.9449    0.0000 </r>
       <r>   39.2929    0.0000 </r>
       <r>   39.2947    0.0000 </r>
       <r>   39.7342    0.0000 </r>
       <r>   40.9089    0.0000 </r>
       <r>   44.0983    0.0000 </r>
       <r>   44.9427    0.0000 </r>
       <r>   44.9888    0.0000 </r>
       <r>   45.8228    0.0000 </r>
       <r>   45.8720    0.0000 </r>
       <r>   47.1887    0.0000 </r>
       <r>   47.2652    0.0000 </r>
       <r>   47.5479    0.0000 </r>
       <r>   48.7791    0.0000 </r>
       <r>   53.0531    0.0000 </r>
      </set>
      <set comment="kpoint 4">
       <r>  -19.6745    1.0000 </r>
       <r>  -19.6745    1.0000 </r>
       <r>  -19.6306    1.0000 </r>
       <r>  -19.5698    1.0000 </r>
       <r>  -19.5698    1.0000 </r>
       <r>  -19.4302    1.0000 </r>
       <r>  -19.4302    1.0000 </r>
       <r>  -19.4154    1.0000 </r>
       <r>  -19.3524    1.0000 </r>
       <r>  -19.3524    1.0000 </r>
       <r>   -5.5994    1.0000 </r>
       <r>   -2.6443    1.0000 </r>
       <r>    3.3570    1.0000 </r>
       <r>    3.3570    1.0000 </r>
       <r>    5.3222    0.0000 </r>
       <r>    8.7153    0.0000 </r>
       <r>    8.7153    0.0000 </r>
       <r>   12.2191    0.0000 </r>
       <r>   15.6138    0.0000 </r>
       <r>   16.1108    0.0000 </r>
       <r>   16.3042    0.0000 </r>
       <r>   16.3042    0.0000 </r>
       <r>   17.6985    0.0000 </r>
       <r>   17.6985    0.0000 </r>
       <r>   23.9630    0.0000 </r>
       <r>   26.2840    0.0000 </r>
       <r>   26.8447    0.0000 </r>
       <r>   26.8447    0.0000 </r>
       <r>   27.6388    0.0000 </r>
       <r>   27.6388    0.0000 </r>
       <r>   30.7004    0.0000 </r>
       <r>   31.2761    0.0000 </r>
       <r>   32.6092    0.0000 </r>
       <r>   32.6092    0.0000 </r>
       <r>   32.7801    0.0000 </r>
       <r>   34.0478    0.0000 </r>
       <r>   34.0478    0.0000 </r>
       <r>   37.6580    0.0000 </r>
       <r>   37.6580    0.0000 </r>
       <r>   37.8111    0.0000 </r>
       <r>   37.8111    0.0000 </r>
       <r>   38.4835    0.0000 </r>
       <r>   38.5427    0.0000 </r>
       <r>   39.5191    0.0000 </r>
       <r>   43.7205    0.0000 </r>
       <r>   45.7166    0.0000 </r>
       <r>   45.7399    0.0000 </r>
       <r>   46.3809    0.0000 </r>
       <r>   46.4164    0.0000 </r>
       <r>   47.6782    0.0000 </r>
       <r>   52.4191    0.0000 </r>
       <r>   53.1008    0.0000 </r>
       <r>   54.1305    0.0000 </r>
       <r>   55.0811    0.0000 </r>
      </set>
      <set comment="kpoint 5">
       <r>  -19.6591    1.0000 </r>
       <r>  -19.6591    1.0000 </r>
       <r>  -19.6589    1.0000 </r>
       <r>  -19.5968    1.0000 </r>
       <r>  -19.5740    1.0000 </r>
       <r>  -19.4473    1.0000 </r>
       <r>  -19.3954    1.0000 </r>
       <r>  -19.3796    1.0000 </r>
       <r>  -19.3796    1.0000 </r>
       <r>  -19.3631    1.0000 </r>
       <r>   -7.2516    1.0000 </r>
       <r>    1.8658    1.0000 </r>
       <r>    3.4939    1.0000 </r>
       <r>    3.4939    1.0000 </r>
       <r>    6.5524    0.0000 </r>
       <r>    7.7678    0.0000 </r>
       <r>    9.3016    0.0000 </r>
       <r>    9.3016    0.0000 </r>
       <r>   12.0386    0.0000 </r>
       <r>   13.5301    0.0000 </r>
       <r>   15.1488    0.0000 </r>
       <r>   16.8972    0.0000 </r>
       <r>   16.8972    0.0000 </r>
       <r>   17.8287    0.0000 </r>
       <r>   22.7194    0.0000 </r>
       <r>   25.5436    0.0000 </r>
       <r>   25.5437    0.0000 </r>
       <r>   26.7052    0.0000 </r>
       <r>   26.9062    0.0000 </r>
       <r>   31.3912    0.0000 </r>
       <r>   31.3913    0.0000 </r>
       <r>   32.3086    0.0000 </r>
       <r>   35.0582    0.0000 </r>
       <r>   37.6205    0.0000 </r>
       <r>   37.6899    0.0000 </r>
       <r>   37.6938    0.0000 </r>
       <r>   38.0214    0.0000 </r>
       <r>   38.0249    0.0000 </r>
       <r>   38.3950    0.0000 </r>
       <r>   38.8957    0.0000 </r>
       <r>   41.5958    0.0000 </r>
       <r>   42.2237    0.0000 </r>
       <r>   42.3441    0.0000 </r>
       <r>   43.0211    0.0000 </r>
       <r>   43.6801    0.0000 </r>
       <r>   43.8611    0.0000 </r>
       <r>   44.5209    0.0000 </r>
       <r>   44.5573    0.0000 </r>
       <r>   45.3378    0.0000 </r>
       <r>   48.3127    0.0000 </r>
       <r>   48.9179    0.0000 </r>
       <r>   49.7300    0.0000 </r>
       <r>   50.0765    0.0000 </r>
       <r>   51.3090    0.0000 </r>
      </set>
      <set comment="kpoint 6">
       <r>  -19.6800    1.0000 </r>
       <r>  -19.6697    1.0000 </r>
       <r>  -19.6384    1.0000 </r>
       <r>  -19.5755    1.0000 </r>
       <r>  -19.5476    1.0000 </r>
       <r>  -19.4735    1.0000 </r>
       <r>  -19.4181    1.0000 </r>
       <r>  -19.3931    1.0000 </r>
       <r>  -19.3612    1.0000 </r>
       <r>  -19.3472    1.0000 </r>
       <r>   -6.4981    1.0000 </r>
       <r>   -0.4066    1.0000 </r>
       <r>    2.5458    1.0000 </r>
       <r>    2.8737    1.0000 </r>
       <r>    6.7702    0.0000 </r>
       <r>    8.1037    0.0000 </r>
       <r>    9.9638    0.0000 </r>
       <r>   10.2070    0.0000 </r>
       <r>   13.5490    0.0000 </r>
       <r>   14.8250    0.0000 </r>
       <r>   15.4477    0.0000 </r>
       <r>   17.1670    0.0000 </r>
       <r>   19.7471    0.0000 </r>
       <r>   21.0210    0.0000 </r>
       <r>   21.3904    0.0000 </r>
       <r>   21.5487    0.0000 </r>
       <r>   25.7531    0.0000 </r>
       <r>   26.5658    0.0000 </r>
       <r>   26.8866    0.0000 </r>
       <r>   28.3324    0.0000 </r>
       <r>   31.3376    0.0000 </r>
       <r>   32.1235    0.0000 </r>
       <r>   34.3654    0.0000 </r>
       <r>   34.4295    0.0000 </r>
       <r>   34.6253    0.0000 </r>
       <r>   35.7194    0.0000 </r>
       <r>   37.2344    0.0000 </r>
       <r>   37.5231    0.0000 </r>
       <r>   38.7063    0.0000 </r>
       <r>   39.2207    0.0000 </r>
       <r>   39.9723    0.0000 </r>
       <r>   40.0456    0.0000 </r>
       <r>   40.8856    0.0000 </r>
       <r>   41.8591    0.0000 </r>
       <r>   43.0669    0.0000 </r>
       <r>   44.0693    0.0000 </r>
       <r>   45.0102    0.0000 </r>
       <r>   46.4055    0.0000 </r>
       <r>   46.8246    0.0000 </r>
       <r>   47.4828    0.0000 </r>
       <r>   48.4788    0.0000 </r>
       <r>   49.1202    0.0000 </r>
       <r>   49.8881    0.0000 </r>
       <r>   51.2539    0.0000 </r>
      </set>
      <set comment="kpoint 7">
       <r>  -19.6915    1.0000 </r>
       <r>  -19.6780    1.0000 </r>
       <r>  -19.6138    1.0000 </r>
       <r>  -19.5558    1.0000 </r>
       <r>  -19.5470    1.0000 </r>
       <r>  -19.4680    1.0000 </r>
       <r>  -19.4409    1.0000 </r>
       <r>  -19.4206    1.0000 </r>
       <r>  -19.3478    1.0000 </r>
       <r>  -19.3345    1.0000 </r>
       <r>   -5.4323    1.0000 </r>
       <r>   -2.4138    1.0000 </r>
       <r>    1.7303    1.0000 </r>
       <r>    2.7996    1.0000 </r>
       <r>    6.6543    0.0000 </r>
       <r>    8.7787    0.0000 </r>
       <r>    9.9402    0.0000 </r>
       <r>   11.4328    0.0000 </r>
       <r>   14.3380    0.0000 </r>
       <r>   16.1442    0.0000 </r>
       <r>   16.3468    0.0000 </r>
       <r>   16.9077    0.0000 </r>
       <r>   18.2275    0.0000 </r>
       <r>   21.6136    0.0000 </r>
       <r>   23.2772    0.0000 </r>
       <r>   24.1469    0.0000 </r>
       <r>   25.5431    0.0000 </r>
       <r>   26.4362    0.0000 </r>
       <r>   27.6733    0.0000 </r>
       <r>   28.5420    0.0000 </r>
       <r>   28.9412    0.0000 </r>
       <r>   31.1190    0.0000 </r>
       <r>   31.1904    0.0000 </r>
       <r>   32.5421    0.0000 </r>
       <r>   32.7992    0.0000 </r>
       <r>   32.9179    0.0000 </r>
       <r>   34.2220    0.0000 </r>
       <r>   35.9103    0.0000 </r>
       <r>   37.4660    0.0000 </r>
       <r>   38.1320    0.0000 </r>
       <r>   38.9097    0.0000 </r>
       <r>   39.5837    0.0000 </r>
       <r>   41.6312    0.0000 </r>
       <r>   42.6900    0.0000 </r>
       <r>   42.7943    0.0000 </r>
       <r>   44.6099    0.0000 </r>
       <r>   44.9478    0.0000 </r>
       <r>   47.4566    0.0000 </r>
       <r>   48.9454    0.0000 </r>
       <r>   50.1994    0.0000 </r>
       <r>   50.8817    0.0000 </r>
       <r>   51.1545    0.0000 </r>
       <r>   51.9249    0.0000 </r>
       <r>   53.3456    0.0000 </r>
      </set>
      <set comment="kpoint 8">
       <r>  -19.6880    1.0000 </r>
       <r>  -19.6815    1.0000 </r>
       <r>  -19.6095    1.0000 </r>
       <r>  -19.5681    1.0000 </r>
       <r>  -19.5476    1.0000 </r>
       <r>  -19.4546    1.0000 </r>
       <r>  -19.4370    1.0000 </r>
       <r>  -19.4302    1.0000 </r>
       <r>  -19.3428    1.0000 </r>
       <r>  -19.3400    1.0000 </r>
       <r>   -5.7700    1.0000 </r>
       <r>   -1.8688    1.0000 </r>
       <r>    1.5154    1.0000 </r>
       <r>    3.2853    1.0000 </r>
       <r>    6.7954    0.0000 </r>
       <r>    9.0514    0.0000 </r>
       <r>    9.3910    0.0000 </r>
       <r>   11.7363    0.0000 </r>
       <r>   13.4815    0.0000 </r>
       <r>   14.2023    0.0000 </r>
       <r>   16.1773    0.0000 </r>
       <r>   17.8584    0.0000 </r>
       <r>   19.8105    0.0000 </r>
       <r>   21.5824    0.0000 </r>
       <r>   21.7894    0.0000 </r>
       <r>   23.3157    0.0000 </r>
       <r>   26.0639    0.0000 </r>
       <r>   27.4565    0.0000 </r>
       <r>   28.0463    0.0000 </r>
       <r>   28.5031    0.0000 </r>
       <r>   29.3435    0.0000 </r>
       <r>   29.4719    0.0000 </r>
       <r>   32.2208    0.0000 </r>
       <r>   32.5760    0.0000 </r>
       <r>   32.9890    0.0000 </r>
       <r>   33.3312    0.0000 </r>
       <r>   35.2296    0.0000 </r>
       <r>   37.0798    0.0000 </r>
       <r>   38.3174    0.0000 </r>
       <r>   38.9272    0.0000 </r>
       <r>   39.3476    0.0000 </r>
       <r>   39.4069    0.0000 </r>
       <r>   41.6157    0.0000 </r>
       <r>   41.8594    0.0000 </r>
       <r>   42.0211    0.0000 </r>
       <r>   44.8200    0.0000 </r>
       <r>   44.9795    0.0000 </r>
       <r>   45.9666    0.0000 </r>
       <r>   46.4564    0.0000 </r>
       <r>   48.2840    0.0000 </r>
       <r>   50.6044    0.0000 </r>
       <r>   51.8346    0.0000 </r>
       <r>   53.2030    0.0000 </r>
       <r>   54.3029    0.0000 </r>
      </set>
      <set comment="kpoint 9">
       <r>  -19.6760    1.0000 </r>
       <r>  -19.6710    1.0000 </r>
       <r>  -19.6324    1.0000 </r>
       <r>  -19.5855    1.0000 </r>
       <r>  -19.5667    1.0000 </r>
       <r>  -19.4411    1.0000 </r>
       <r>  -19.4260    1.0000 </r>
       <r>  -19.3965    1.0000 </r>
       <r>  -19.3634    1.0000 </r>
       <r>  -19.3488    1.0000 </r>
       <r>   -6.8223    1.0000 </r>
       <r>    0.2966    1.0000 </r>
       <r>    2.2695    1.0000 </r>
       <r>    4.0731    1.0000 </r>
       <r>    6.9711    0.0000 </r>
       <r>    8.4685    0.0000 </r>
       <r>    8.7527    0.0000 </r>
       <r>   10.1176    0.0000 </r>
       <r>   12.4830    0.0000 </r>
       <r>   14.4485    0.0000 </r>
       <r>   14.4959    0.0000 </r>
       <r>   17.0625    0.0000 </r>
       <r>   18.2120    0.0000 </r>
       <r>   20.9943    0.0000 </r>
       <r>   21.7882    0.0000 </r>
       <r>   24.0290    0.0000 </r>
       <r>   25.5807    0.0000 </r>
       <r>   26.2614    0.0000 </r>
       <r>   26.7443    0.0000 </r>
       <r>   28.3438    0.0000 </r>
       <r>   31.7103    0.0000 </r>
       <r>   33.8855    0.0000 </r>
       <r>   34.8066    0.0000 </r>
       <r>   35.1471    0.0000 </r>
       <r>   35.7087    0.0000 </r>
       <r>   35.9262    0.0000 </r>
       <r>   38.2760    0.0000 </r>
       <r>   38.5974    0.0000 </r>
       <r>   39.0512    0.0000 </r>
       <r>   39.4313    0.0000 </r>
       <r>   39.6270    0.0000 </r>
       <r>   40.6490    0.0000 </r>
       <r>   41.5158    0.0000 </r>
       <r>   41.5304    0.0000 </r>
       <r>   42.2205    0.0000 </r>
       <r>   42.3100    0.0000 </r>
       <r>   44.2793    0.0000 </r>
       <r>   44.3576    0.0000 </r>
       <r>   46.7585    0.0000 </r>
       <r>   47.1348    0.0000 </r>
       <r>   47.8416    0.0000 </r>
       <r>   48.8308    0.0000 </r>
       <r>   49.9215    0.0000 </r>
       <r>   51.8953    0.0000 </r>
      </set>
      <set comment="kpoint 10">
       <r>  -19.6762    1.0000 </r>
       <r>  -19.6762    1.0000 </r>
       <r>  -19.6446    1.0000 </r>
       <r>  -19.5528    1.0000 </r>
       <r>  -19.5241    1.0000 </r>
       <r>  -19.5050    1.0000 </r>
       <r>  -19.4364    1.0000 </r>
       <r>  -19.3815    1.0000 </r>
       <r>  -19.3511    1.0000 </r>
       <r>  -19.3511    1.0000 </r>
       <r>   -5.9309    1.0000 </r>
       <r>   -1.1483    1.0000 </r>
       <r>    2.1663    1.0000 </r>
       <r>    2.1663    1.0000 </r>
       <r>    5.6880    0.0000 </r>
       <r>    7.0194    0.0000 </r>
       <r>   12.2372    0.0000 </r>
       <r>   12.2372    0.0000 </r>
       <r>   13.5600    0.0000 </r>
       <r>   16.5812    0.0000 </r>
       <r>   16.8776    0.0000 </r>
       <r>   19.7865    0.0000 </r>
       <r>   19.7865    0.0000 </r>
       <r>   20.3273    0.0000 </r>
       <r>   20.8046    0.0000 </r>
       <r>   20.8046    0.0000 </r>
       <r>   22.3604    0.0000 </r>
       <r>   23.3540    0.0000 </r>
       <r>   29.3714    0.0000 </r>
       <r>   30.4930    0.0000 </r>
       <r>   30.5611    0.0000 </r>
       <r>   30.5611    0.0000 </r>
       <r>   31.6395    0.0000 </r>
       <r>   32.7549    0.0000 </r>
       <r>   32.7550    0.0000 </r>
       <r>   33.7458    0.0000 </r>
       <r>   36.9082    0.0000 </r>
       <r>   38.8833    0.0000 </r>
       <r>   39.0214    0.0000 </r>
       <r>   39.0214    0.0000 </r>
       <r>   41.8029    0.0000 </r>
       <r>   41.8081    0.0000 </r>
       <r>   42.6219    0.0000 </r>
       <r>   43.1886    0.0000 </r>
       <r>   43.4221    0.0000 </r>
       <r>   45.1511    0.0000 </r>
       <r>   45.1921    0.0000 </r>
       <r>   45.3500    0.0000 </r>
       <r>   45.4582    0.0000 </r>
       <r>   45.8693    0.0000 </r>
       <r>   45.9218    0.0000 </r>
       <r>   46.1682    0.0000 </r>
       <r>   47.9210    0.0000 </r>
       <r>   53.5072    0.0000 </r>
      </set>
      <set comment="kpoint 11">
       <r>  -19.6940    1.0000 </r>
       <r>  -19.6825    1.0000 </r>
       <r>  -19.6097    1.0000 </r>
       <r>  -19.5432    1.0000 </r>
       <r>  -19.5257    1.0000 </r>
       <r>  -19.4843    1.0000 </r>
       <r>  -19.4650    1.0000 </r>
       <r>  -19.4192    1.0000 </r>
       <r>  -19.3408    1.0000 </r>
       <r>  -19.3302    1.0000 </r>
       <r>   -4.8603    1.0000 </r>
       <r>   -2.6431    1.0000 </r>
       <r>    1.0614    1.0000 </r>
       <r>    2.0050    1.0000 </r>
       <r>    6.0907    0.0000 </r>
       <r>    7.6881    0.0000 </r>
       <r>   12.0127    0.0000 </r>
       <r>   12.5705    0.0000 </r>
       <r>   15.4222    0.0000 </r>
       <r>   16.8128    0.0000 </r>
       <r>   17.0049    0.0000 </r>
       <r>   18.9311    0.0000 </r>
       <r>   19.1013    0.0000 </r>
       <r>   21.4599    0.0000 </r>
       <r>   22.6170    0.0000 </r>
       <r>   22.8519    0.0000 </r>
       <r>   23.6594    0.0000 </r>
       <r>   24.6456    0.0000 </r>
       <r>   25.3785    0.0000 </r>
       <r>   27.8547    0.0000 </r>
       <r>   28.0543    0.0000 </r>
       <r>   29.0230    0.0000 </r>
       <r>   30.6759    0.0000 </r>
       <r>   32.6147    0.0000 </r>
       <r>   33.5497    0.0000 </r>
       <r>   34.1809    0.0000 </r>
       <r>   36.1198    0.0000 </r>
       <r>   36.5854    0.0000 </r>
       <r>   38.0278    0.0000 </r>
       <r>   38.7777    0.0000 </r>
       <r>   39.0722    0.0000 </r>
       <r>   40.3948    0.0000 </r>
       <r>   41.7311    0.0000 </r>
       <r>   42.2190    0.0000 </r>
       <r>   43.3584    0.0000 </r>
       <r>   45.2028    0.0000 </r>
       <r>   46.0434    0.0000 </r>
       <r>   46.8566    0.0000 </r>
       <r>   47.0137    0.0000 </r>
       <r>   48.5360    0.0000 </r>
       <r>   49.0878    0.0000 </r>
       <r>   51.6394    0.0000 </r>
       <r>   53.0610    0.0000 </r>
       <r>   53.3156    0.0000 </r>
      </set>
      <set comment="kpoint 12">
       <r>  -19.7025    1.0000 </r>
       <r>  -19.6854    1.0000 </r>
       <r>  -19.5936    1.0000 </r>
       <r>  -19.5212    1.0000 </r>
       <r>  -19.5151    1.0000 </r>
       <r>  -19.5008    1.0000 </r>
       <r>  -19.4811    1.0000 </r>
       <r>  -19.4356    1.0000 </r>
       <r>  -19.3373    1.0000 </r>
       <r>  -19.3221    1.0000 </r>
       <r>   -4.7175    1.0000 </r>
       <r>   -2.7967    1.0000 </r>
       <r>    0.3552    1.0000 </r>
       <r>    2.4558    1.0000 </r>
       <r>    6.4874    0.0000 </r>
       <r>   10.7454    0.0000 </r>
       <r>   11.3745    0.0000 </r>
       <r>   11.3764    0.0000 </r>
       <r>   12.2716    0.0000 </r>
       <r>   14.0934    0.0000 </r>
       <r>   18.6047    0.0000 </r>
       <r>   19.0100    0.0000 </r>
       <r>   20.8927    0.0000 </r>
       <r>   22.2430    0.0000 </r>
       <r>   23.1867    0.0000 </r>
       <r>   23.9569    0.0000 </r>
       <r>   23.9628    0.0000 </r>
       <r>   26.3293    0.0000 </r>
       <r>   27.1141    0.0000 </r>
       <r>   27.5172    0.0000 </r>
       <r>   27.5759    0.0000 </r>
       <r>   27.9492    0.0000 </r>
       <r>   30.9049    0.0000 </r>
       <r>   31.5269    0.0000 </r>
       <r>   31.6833    0.0000 </r>
       <r>   33.3947    0.0000 </r>
       <r>   33.4327    0.0000 </r>
       <r>   36.2659    0.0000 </r>
       <r>   38.3243    0.0000 </r>
       <r>   39.1897    0.0000 </r>
       <r>   39.2781    0.0000 </r>
       <r>   39.8899    0.0000 </r>
       <r>   40.2160    0.0000 </r>
       <r>   40.5774    0.0000 </r>
       <r>   45.9037    0.0000 </r>
       <r>   47.0570    0.0000 </r>
       <r>   47.5628    0.0000 </r>
       <r>   48.6529    0.0000 </r>
       <r>   48.9880    0.0000 </r>
       <r>   50.6528    0.0000 </r>
       <r>   51.0722    0.0000 </r>
       <r>   51.4708    0.0000 </r>
       <r>   52.3454    0.0000 </r>
       <r>   53.2069    0.0000 </r>
      </set>
      <set comment="kpoint 13">
       <r>  -19.6840    1.0000 </r>
       <r>  -19.6840    1.0000 </r>
       <r>  -19.5965    1.0000 </r>
       <r>  -19.5965    1.0000 </r>
[...]
        <r>  0.0076  0.0377  0.0477  0.0477  0.0092  0.0092  0.0292  0.0100  0.0506 </r>
       </set>
       <set comment="band 24">
        <r>  0.0001  0.0009  0.0330  0.0330  0.0033  0.0033  0.0221  0.0671  0.0193 </r>
        <r>  0.0001  0.0009  0.0330  0.0330  0.0033  0.0033  0.0221  0.0671  0.0193 </r>
       </set>
       <set comment="band 25">
        <r>  0.0057  0.0114  0.0077  0.0077  0.0118  0.0118  0.0545  0.0198  0.0454 </r>
        <r>  0.0057  0.0114  0.0077  0.0077  0.0118  0.0118  0.0545  0.0198  0.0454 </r>
       </set>
       <set comment="band 26">
        <r>  0.0189  0.0352  0.0036  0.0036  0.0634  0.0634  0.0023  0.0417  0.0022 </r>
        <r>  0.0189  0.0352  0.0036  0.0036  0.0634  0.0634  0.0023  0.0417  0.0022 </r>
       </set>
       <set comment="band 27">
        <r>  0.0229  0.0107  0.0021  0.0021  0.0223  0.0223  0.0661  0.0703  0.0312 </r>
        <r>  0.0229  0.0107  0.0021  0.0021  0.0223  0.0223  0.0661  0.0703  0.0312 </r>
       </set>
       <set comment="band 28">
        <r>  0.0023  0.0000  0.0194  0.0194  0.0466  0.0467  0.0121  0.0662  0.0082 </r>
        <r>  0.0023  0.0000  0.0194  0.0194  0.0467  0.0466  0.0121  0.0661  0.0082 </r>
       </set>
       <set comment="band 29">
        <r>  0.0031  0.0179  0.0080  0.0080  0.0558  0.0558  0.0115  0.0073  0.0275 </r>
        <r>  0.0031  0.0179  0.0080  0.0080  0.0558  0.0558  0.0115  0.0073  0.0275 </r>
       </set>
       <set comment="band 30">
        <r>  0.0114  0.0195  0.0212  0.0212  0.0309  0.0309  0.0542  0.0239  0.0184 </r>
        <r>  0.0113  0.0195  0.0212  0.0212  0.0309  0.0309  0.0542  0.0239  0.0184 </r>
       </set>
       <set comment="band 31">
        <r>  0.0202  0.0508  0.0017  0.0017  0.0780  0.0780  0.0263  0.0009  0.0255 </r>
        <r>  0.0201  0.0508  0.0017  0.0017  0.0780  0.0780  0.0263  0.0009  0.0255 </r>
       </set>
       <set comment="band 32">
        <r>  0.0095  0.0143  0.0020  0.0020  0.0292  0.0291  0.0130  0.0117  0.0043 </r>
        <r>  0.0095  0.0143  0.0020  0.0021  0.0291  0.0292  0.0129  0.0117  0.0043 </r>
       </set>
       <set comment="band 33">
        <r>  0.0003  0.0067  0.0021  0.0021  0.0016  0.0016  0.0311  0.0073  0.0791 </r>
        <r>  0.0003  0.0067  0.0021  0.0021  0.0016  0.0016  0.0311  0.0073  0.0791 </r>
       </set>
       <set comment="band 34">
        <r>  0.0551  0.0015  0.0084  0.0084  0.0239  0.0239  0.0262  0.0037  0.0265 </r>
        <r>  0.0551  0.0015  0.0084  0.0084  0.0239  0.0239  0.0262  0.0037  0.0265 </r>
       </set>
       <set comment="band 35">
        <r>  0.0024  0.0279  0.0096  0.0096  0.0439  0.0439  0.0140  0.0148  0.0227 </r>
        <r>  0.0024  0.0279  0.0096  0.0096  0.0439  0.0439  0.0139  0.0148  0.0227 </r>
       </set>
       <set comment="band 36">
        <r>  0.0194  0.0024  0.0041  0.0041  0.0039  0.0039  0.0177  0.0116  0.0186 </r>
        <r>  0.0194  0.0024  0.0041  0.0041  0.0039  0.0039  0.0177  0.0116  0.0186 </r>
       </set>
       <set comment="band 37">
        <r>  0.0002  0.0026  0.0003  0.0003  0.0216  0.0217  0.0177  0.0003  0.0364 </r>
        <r>  0.0002  0.0026  0.0003  0.0003  0.0216  0.0216  0.0177  0.0003  0.0363 </r>
       </set>
       <set comment="band 38">
        <r>  0.0063  0.0011  0.0227  0.0226  0.0028  0.0029  0.0222  0.0262  0.0075 </r>
        <r>  0.0063  0.0011  0.0226  0.0226  0.0029  0.0029  0.0221  0.0264  0.0074 </r>
       </set>
       <set comment="band 39">
        <r>  0.0018  0.0029  0.0047  0.0048  0.0060  0.0060  0.0666  0.0067  0.0248 </r>
        <r>  0.0019  0.0029  0.0047  0.0048  0.0060  0.0060  0.0666  0.0067  0.0248 </r>
       </set>
       <set comment="band 40">
        <r>  0.0300  0.0011  0.0060  0.0060  0.0008  0.0008  0.0086  0.0082  0.0172 </r>
        <r>  0.0299  0.0011  0.0060  0.0060  0.0008  0.0008  0.0086  0.0082  0.0172 </r>
       </set>
       <set comment="band 41">
        <r>  0.0019  0.0417  0.0101  0.0096  0.0902  0.0907  0.0714  0.0177  0.0235 </r>
        <r>  0.0019  0.0413  0.0097  0.0101  0.0914  0.0902  0.0708  0.0179  0.0238 </r>
       </set>
       <set comment="band 42">
        <r>  0.0283  0.0044  0.0164  0.0157  0.0597  0.0606  0.0139  0.0006  0.0395 </r>
        <r>  0.0284  0.0044  0.0159  0.0157  0.0599  0.0602  0.0137  0.0007  0.0397 </r>
       </set>
       <set comment="band 43">
        <r>  0.0032  0.0023  0.0087  0.0021  0.0248  0.0226  0.0259  0.0039  0.0255 </r>
        <r>  0.0020  0.0026  0.0102  0.0043  0.0172  0.0153  0.0270  0.0051  0.0265 </r>
       </set>
       <set comment="band 44">
        <r>  0.0038  0.0039  0.0046  0.0109  0.0201  0.0180  0.0314  0.0046  0.0018 </r>
        <r>  0.0030  0.0035  0.0022  0.0097  0.0261  0.0238  0.0305  0.0043  0.0006 </r>
       </set>
       <set comment="band 45">
        <r>  0.0056  0.0002  0.0102  0.0102  0.0301  0.0328  0.0366  0.0013  0.0125 </r>
        <r>  0.0070  0.0001  0.0072  0.0084  0.0380  0.0380  0.0287  0.0025  0.0087 </r>
       </set>
       <set comment="band 46">
        <r>  0.0018  0.0189  0.0074  0.0088  0.0204  0.0275  0.0413  0.0094  0.0280 </r>
        <r>  0.0013  0.0195  0.0103  0.0113  0.0147  0.0164  0.0581  0.0068  0.0288 </r>
       </set>
       <set comment="band 47">
        <r>  0.0016  0.0015  0.0068  0.0069  0.0024  0.0039  0.0156  0.0069  0.0216 </r>
        <r>  0.0022  0.0020  0.0037  0.0042  0.0018  0.0033  0.0060  0.0060  0.0214 </r>
       </set>
       <set comment="band 48">
        <r>  0.0017  0.0117  0.0004  0.0093  0.0756  0.0250  0.0002  0.0507  0.0336 </r>
        <r>  0.0005  0.0049  0.0027  0.0122  0.0909  0.0492  0.0021  0.0299  0.0311 </r>
       </set>
       <set comment="band 49">
        <r>  0.0156  0.0005  0.0197  0.0226  0.0440  0.0798  0.0579  0.1446  0.0364 </r>
        <r>  0.0100  0.0008  0.0238  0.0247  0.0313  0.0673  0.0644  0.1423  0.0633 </r>
       </set>
       <set comment="band 50">
        <r>  0.0185  0.0307  0.0088  0.0066  0.0046  0.0223  0.0372  0.0029  0.0802 </r>
        <r>  0.0220  0.0183  0.0070  0.0024  0.0040  0.0110  0.0219  0.0015  0.0450 </r>
       </set>
       <set comment="band 51">
        <r>  0.0329  0.0339  0.0003  0.0003  0.0377  0.0277  0.0208  0.0045  0.0094 </r>
        <r>  0.0285  0.0344  0.0011  0.0001  0.0494  0.0412  0.0495  0.0079  0.0083 </r>
       </set>
       <set comment="band 52">
        <r>  0.0051  0.0048  0.0055  0.0199  0.0009  0.0035  0.0034  0.0219  0.0125 </r>
        <r>  0.0030  0.0038  0.0179  0.0065  0.0075  0.0033  0.0221  0.0089  0.0053 </r>
       </set>
       <set comment="band 53">
        <r>  0.0310  0.0035  0.0201  0.0029  0.0027  0.0293  0.0052  0.0279  0.0367 </r>
        <r>  0.0074  0.0180  0.0164  0.0010  0.0110  0.0355  0.0051  0.0158  0.0316 </r>
       </set>
       <set comment="band 54">
        <r>  0.0058  0.0089  0.0049  0.0097  0.0010  0.0125  0.0228  0.0534  0.0356 </r>
        <r>  0.0143  0.0060  0.0072  0.0173  0.0532  0.0031  0.0021  0.0359  0.0117 </r>
       </set>
      </set>
      <set comment="kpoint 16">
       <set comment="band 1">
        <r>  0.0000  0.0002  0.0000  0.0001  0.0814  0.1714  0.0199  0.2185  0.0049 </r>
        <r>  0.0000  0.0002  0.0000  0.0001  0.0810  0.1704  0.0200  0.2198  0.0050 </r>
       </set>
       <set comment="band 2">
        <r>  0.0000  0.0002  0.0000  0.0001  0.0810  0.1704  0.0200  0.2199  0.0050 </r>
        <r>  0.0000  0.0002  0.0000  0.0001  0.0814  0.1714  0.0199  0.2185  0.0049 </r>
       </set>
       <set comment="band 3">
        <r>  0.0005  0.0000  0.0000  0.0000  0.2165  0.0939  0.1543  0.0122  0.0199 </r>
        <r>  0.0005  0.0000  0.0000  0.0000  0.2145  0.0930  0.1557  0.0123  0.0201 </r>
       </set>
       <set comment="band 4">
        <r>  0.0005  0.0000  0.0000  0.0000  0.2145  0.0930  0.1557  0.0123  0.0201 </r>
        <r>  0.0005  0.0000  0.0000  0.0000  0.2165  0.0939  0.1543  0.0122  0.0199 </r>
       </set>
       <set comment="band 5">
        <r>  0.0000  0.0000  0.0000  0.0001  0.0010  0.0017  0.0493  0.0289  0.3439 </r>
        <r>  0.0000  0.0000  0.0000  0.0000  0.0007  0.0012  0.0663  0.0389  0.4629 </r>
       </set>
       <set comment="band 6">
        <r>  0.0000  0.0000  0.0000  0.0000  0.0007  0.0012  0.0663  0.0389  0.4629 </r>
        <r>  0.0000  0.0000  0.0000  0.0001  0.0010  0.0017  0.0492  0.0289  0.3439 </r>
       </set>
       <set comment="band 7">
        <r>  0.0003  0.0000  0.0001  0.0000  0.1267  0.0608  0.2357  0.0123  0.0609 </r>
        <r>  0.0003  0.0000  0.0001  0.0000  0.1241  0.0596  0.2406  0.0125  0.0622 </r>
       </set>
       <set comment="band 8">
        <r>  0.0003  0.0000  0.0001  0.0000  0.1241  0.0596  0.2406  0.0125  0.0622 </r>
        <r>  0.0003  0.0000  0.0001  0.0000  0.1267  0.0608  0.2357  0.0123  0.0609 </r>
       </set>
       <set comment="band 9">
        <r>  0.0000  0.0001  0.0000  0.0000  0.0764  0.1774  0.0255  0.2120  0.0073 </r>
        <r>  0.0000  0.0001  0.0000  0.0000  0.0712  0.1652  0.0273  0.2276  0.0079 </r>
       </set>
       <set comment="band 10">
        <r>  0.0000  0.0001  0.0000  0.0000  0.0712  0.1652  0.0273  0.2276  0.0079 </r>
        <r>  0.0000  0.0001  0.0000  0.0000  0.0764  0.1774  0.0255  0.2120  0.0073 </r>
       </set>
       <set comment="band 11">
        <r>  0.2893  0.0000  0.0433  0.0123  0.0052  0.0020  0.0003  0.0000  0.0000 </r>
        <r>  0.2859  0.0000  0.0438  0.0124  0.0052  0.0020  0.0003  0.0000  0.0000 </r>
       </set>
       <set comment="band 12">
        <r>  0.2859  0.0000  0.0438  0.0124  0.0052  0.0020  0.0003  0.0000  0.0000 </r>
        <r>  0.2893  0.0000  0.0433  0.0123  0.0052  0.0020  0.0003  0.0000  0.0000 </r>
       </set>
       <set comment="band 13">
        <r>  0.0012  0.1148  0.0390  0.0984  0.0001  0.0006  0.0033  0.0016  0.0008 </r>
        <r>  0.0012  0.1150  0.0389  0.0982  0.0001  0.0006  0.0033  0.0016  0.0008 </r>
       </set>
       <set comment="band 14">
        <r>  0.0012  0.1150  0.0389  0.0982  0.0001  0.0006  0.0033  0.0016  0.0008 </r>
        <r>  0.0012  0.1148  0.0390  0.0984  0.0001  0.0006  0.0033  0.0016  0.0008 </r>
       </set>
       <set comment="band 15">
        <r>  0.0858  0.0583  0.0223  0.0120  0.0113  0.0002  0.0353  0.0005  0.0005 </r>
        <r>  0.0197  0.0134  0.0969  0.0523  0.0494  0.0010  0.0081  0.0001  0.0001 </r>
       </set>
       <set comment="band 16">
        <r>  0.0197  0.0134  0.0969  0.0523  0.0494  0.0010  0.0081  0.0001  0.0001 </r>
        <r>  0.0858  0.0583  0.0223  0.0120  0.0113  0.0002  0.0353  0.0005  0.0005 </r>
       </set>
       <set comment="band 17">
        <r>  0.0050  0.0172  0.0660  0.1046  0.0054  0.0680  0.0006  0.0000  0.0029 </r>
        <r>  0.0503  0.1733  0.0065  0.0104  0.0005  0.0067  0.0058  0.0000  0.0295 </r>
       </set>
       <set comment="band 18">
        <r>  0.0503  0.1733  0.0065  0.0104  0.0005  0.0067  0.0058  0.0000  0.0295 </r>
        <r>  0.0050  0.0172  0.0660  0.1046  0.0054  0.0680  0.0006  0.0000  0.0029 </r>
       </set>
       <set comment="band 19">
        <r>  0.0028  0.0395  0.0826  0.0904  0.0072  0.0096  0.0000  0.0850  0.0001 </r>
        <r>  0.0026  0.0363  0.0900  0.0985  0.0079  0.0105  0.0000  0.0779  0.0001 </r>
       </set>
       <set comment="band 20">
        <r>  0.0026  0.0363  0.0900  0.0985  0.0079  0.0105  0.0000  0.0779  0.0001 </r>
        <r>  0.0028  0.0395  0.0826  0.0904  0.0072  0.0096  0.0000  0.0850  0.0001 </r>
       </set>
       <set comment="band 21">
        <r>  0.0220  0.0016  0.0185  0.0082  0.0012  0.0026  0.0155  0.0064  0.1460 </r>
        <r>  0.0034  0.0003  0.1180  0.0523  0.0077  0.0166  0.0024  0.0010  0.0229 </r>
       </set>
       <set comment="band 22">
        <r>  0.0034  0.0003  0.1180  0.0523  0.0077  0.0166  0.0024  0.0010  0.0229 </r>
        <r>  0.0220  0.0016  0.0185  0.0082  0.0012  0.0026  0.0155  0.0064  0.1460 </r>
       </set>
       <set comment="band 23">
        <r>  0.0006  0.0168  0.0091  0.0065  0.0049  0.0168  0.0332  0.0880  0.0067 </r>
        <r>  0.0006  0.0171  0.0089  0.0063  0.0048  0.0165  0.0339  0.0896  0.0068 </r>
       </set>
       <set comment="band 24">
        <r>  0.0006  0.0171  0.0089  0.0063  0.0048  0.0165  0.0338  0.0896  0.0068 </r>
        <r>  0.0006  0.0168  0.0091  0.0065  0.0049  0.0168  0.0332  0.0880  0.0067 </r>
       </set>
       <set comment="band 25">
        <r>  0.0145  0.0109  0.0165  0.0035  0.0000  0.0001  0.0083  0.0037  0.0714 </r>
        <r>  0.0077  0.0058  0.0311  0.0067  0.0001  0.0002  0.0044  0.0020  0.0379 </r>
       </set>
       <set comment="band 26">
        <r>  0.0077  0.0058  0.0311  0.0067  0.0001  0.0002  0.0044  0.0020  0.0379 </r>
        <r>  0.0145  0.0109  0.0165  0.0035  0.0000  0.0001  0.0083  0.0037  0.0714 </r>
       </set>
       <set comment="band 27">
        <r>  0.0429  0.0236  0.0049  0.0026  0.0069  0.0491  0.0611  0.0290  0.0392 </r>
        <r>  0.0158  0.0087  0.0133  0.0072  0.0188  0.1333  0.0225  0.0107  0.0144 </r>
       </set>
       <set comment="band 28">
        <r>  0.0158  0.0087  0.0133  0.0072  0.0188  0.1333  0.0225  0.0107  0.0144 </r>
        <r>  0.0429  0.0236  0.0049  0.0026  0.0069  0.0491  0.0611  0.0290  0.0392 </r>
       </set>
       <set comment="band 29">
        <r>  0.0059  0.0449  0.0072  0.0030  0.0000  0.0861  0.0524  0.0006  0.0003 </r>
        <r>  0.0065  0.0500  0.0065  0.0027  0.0000  0.0774  0.0583  0.0007  0.0003 </r>
       </set>
       <set comment="band 30">
        <r>  0.0066  0.0500  0.0065  0.0027  0.0000  0.0774  0.0583  0.0007  0.0003 </r>
        <r>  0.0059  0.0449  0.0072  0.0030  0.0000  0.0861  0.0524  0.0006  0.0003 </r>
       </set>
       <set comment="band 31">
        <r>  0.0000  0.0000  0.0120  0.0254  0.0000  0.0018  0.0008  0.0005  0.0001 </r>
        <r>  0.0005  0.0044  0.0001  0.0002  0.0000  0.0000  0.1315  0.0798  0.0164 </r>
       </set>
       <set comment="band 32">
        <r>  0.0005  0.0044  0.0001  0.0002  0.0000  0.0000  0.1315  0.0798  0.0164 </r>
        <r>  0.0000  0.0000  0.0120  0.0254  0.0000  0.0018  0.0008  0.0005  0.0001 </r>
       </set>
       <set comment="band 33">
        <r>  0.0129  0.0012  0.0064  0.0407  0.2770  0.0075  0.0042  0.0157  0.0015 </r>
        <r>  0.0302  0.0029  0.0027  0.0174  0.1187  0.0032  0.0099  0.0365  0.0034 </r>
       </set>
       <set comment="band 34">
        <r>  0.0302  0.0029  0.0027  0.0174  0.1187  0.0032  0.0099  0.0365  0.0034 </r>
        <r>  0.0129  0.0012  0.0064  0.0407  0.2770  0.0075  0.0042  0.0156  0.0015 </r>
       </set>
       <set comment="band 35">
        <r>  0.0050  0.0024  0.0025  0.0077  0.0267  0.0400  0.0008  0.0000  0.0003 </r>
        <r>  0.0724  0.0339  0.0002  0.0005  0.0019  0.0028  0.0118  0.0003  0.0040 </r>
       </set>
       <set comment="band 36">
        <r>  0.0724  0.0339  0.0002  0.0005  0.0019  0.0028  0.0118  0.0003  0.0040 </r>
        <r>  0.0050  0.0023  0.0024  0.0077  0.0267  0.0401  0.0008  0.0000  0.0003 </r>
       </set>
       <set comment="band 37">
        <r>  0.0040  0.0183  0.0003  0.0002  0.0001  0.0000  0.0017  0.0165  0.1450 </r>
        <r>  0.0003  0.0013  0.0036  0.0029  0.0012  0.0005  0.0001  0.0012  0.0104 </r>
       </set>
       <set comment="band 38">
        <r>  0.0003  0.0013  0.0036  0.0029  0.0012  0.0005  0.0001  0.0012  0.0104 </r>
        <r>  0.0040  0.0184  0.0003  0.0002  0.0001  0.0000  0.0017  0.0165  0.1450 </r>
       </set>
       <set comment="band 39">
        <r>  0.0028  0.0000  0.0010  0.0003  0.0008  0.0002  0.1911  0.0088  0.0000 </r>
        <r>  0.0001  0.0000  0.0401  0.0128  0.0321  0.0078  0.0048  0.0002  0.0000 </r>
       </set>
       <set comment="band 40">
        <r>  0.0001  0.0000  0.0405  0.0130  0.0322  0.0076  0.0048  0.0002  0.0000 </r>
        <r>  0.0028  0.0000  0.0010  0.0003  0.0008  0.0002  0.1911  0.0089  0.0000 </r>
       </set>
       <set comment="band 41">
        <r>  0.0001  0.0018  0.0058  0.0518  0.0093  0.0017  0.0002  0.0000  0.0059 </r>
        <r>  0.0008  0.0143  0.0007  0.0064  0.0012  0.0002  0.0014  0.0000  0.0457 </r>
       </set>
       <set comment="band 42">
        <r>  0.0008  0.0139  0.0006  0.0063  0.0010  0.0002  0.0016  0.0000  0.0475 </r>
        <r>  0.0001  0.0018  0.0057  0.0509  0.0091  0.0017  0.0002  0.0000  0.0058 </r>
       </set>
       <set comment="band 43">
        <r>  0.0350  0.0062  0.0000  0.0022  0.0397  0.0014  0.0613  0.0361  0.0096 </r>
        <r>  0.0041  0.0007  0.0003  0.0184  0.3369  0.0111  0.0074  0.0043  0.0011 </r>
       </set>
       <set comment="band 44">
        <r>  0.0037  0.0008  0.0005  0.0183  0.3386  0.0127  0.0064  0.0042  0.0007 </r>
        <r>  0.0321  0.0065  0.0000  0.0023  0.0406  0.0009  0.0617  0.0361  0.0101 </r>
       </set>
       <set comment="band 45">
        <r>  0.0080  0.0156  0.0000  0.0143  0.0046  0.0417  0.0371  0.0001  0.0068 </r>
        <r>  0.0315  0.0548  0.0000  0.0041  0.0015  0.0106  0.1342  0.0002  0.0243 </r>
       </set>
       <set comment="band 46">
        <r>  0.0323  0.0574  0.0004  0.0040  0.0013  0.0137  0.1356  0.0001  0.0155 </r>
        <r>  0.0085  0.0163  0.0001  0.0158  0.0037  0.0383  0.0373  0.0000  0.0065 </r>
       </set>
       <set comment="band 47">
        <r>  0.0059  0.0004  0.0052  0.0012  0.0068  0.0053  0.0015  0.0002  0.1584 </r>
        <r>  0.0032  0.0001  0.0105  0.0045  0.0146  0.0018  0.0001  0.0002  0.0498 </r>
       </set>
       <set comment="band 48">
        <r>  0.0045  0.0033  0.0071  0.0070  0.0132  0.0032  0.0011  0.0001  0.0486 </r>
        <r>  0.0025  0.0034  0.0023  0.0009  0.0053  0.0034  0.0001  0.0000  0.1533 </r>
       </set>
       <set comment="band 49">
        <r>  0.0332  0.0200  0.0003  0.0005  0.0001  0.0241  0.0050  0.0088  0.0039 </r>
        <r>  0.0030  0.0028  0.0182  0.0041  0.0008  0.2727  0.0002  0.0011  0.0016 </r>
       </set>
       <set comment="band 50">
        <r>  0.0008  0.0003  0.0158  0.0006  0.0029  0.2559  0.0009  0.0022  0.0060 </r>
        <r>  0.0369  0.0202  0.0074  0.0006  0.0007  0.0368  0.0017  0.0203  0.0161 </r>
       </set>
       <set comment="band 51">
        <r>  0.0025  0.0015  0.0319  0.0023  0.0177  0.0220  0.0376  0.0035  0.0701 </r>
        <r>  0.0022  0.0104  0.0254  0.0013  0.0073  0.0009  0.0014  0.0088  0.0447 </r>
       </set>
       <set comment="band 52">
        <r>  0.0089  0.0068  0.0011  0.0355  0.0051  0.0264  0.0010  0.0102  0.0274 </r>
        <r>  0.0011  0.0066  0.0028  0.0038  0.0016  0.0051  0.0270  0.1972  0.0717 </r>
       </set>
       <set comment="band 53">
        <r>  0.0156  0.0086  0.0014  0.0113  0.0115  0.0052  0.0080  0.0166  0.0017 </r>
        <r>  0.0273  0.0211  0.0101  0.0011  0.0251  0.0110  0.0005  0.0211  0.0090 </r>
       </set>
       <set comment="band 54">
        <r>  0.0076  0.0005  0.0093  0.0020  0.0011  0.0117  0.0390  0.2193  0.0427 </r>
        <r>  0.0025  0.0021  0.0151  0.0050  0.0285  0.0281  0.0014  0.0639  0.0034 </r>
       </set>
      </set>
     </set>
    </set>
   </array>
  </projected>
 </calculation>
 <structure name="finalpos" >
  <crystal>
   <varray name="basis" >
    <v>       0.00000000       2.81650000       2.81650000 </v>
    <v>       2.81650000       0.00000000       2.81650000 </v>
    <v>       2.81650000       2.81650000       0.00000000 </v>
   </varray>
   <i name="volume">     44.68474278 </i>
   <varray name="rec_basis" >
    <v>      -0.17752530       0.17752530       0.17752530 </v>
    <v>       0.17752530      -0.17752530       0.17752530 </v>
    <v>       0.17752530       0.17752530      -0.17752530 </v>
   </varray>
  </crystal>
  <varray name="positions" >
   <v>       0.00000000       0.00000000       0.00000000 </v>
   <v>       0.25000000       0.25000000       0.25000000 </v>
  </varray>
 </structure>
</modeling>
