       N       E                     dE             d eps       ncg     rms          ort
SDA:   1     0.985812962186E+02    0.98581E+02   -0.67301E+02  5250   0.168E+03 0.000E+00
DMP:   2     0.468879326728E+02   -0.51693E+02   -0.41106E+02  5250   0.701E+02 0.856E+02
DMP:   3     0.170610215910E+02   -0.29827E+02   -0.18917E+02  5250   0.308E+02 0.432E+02
DMP:   4     0.455876851898E+01   -0.12502E+02   -0.75788E+01  5250   0.138E+02 0.134E+02
DMP:   5    -0.119876001622E+01   -0.57575E+01   -0.44693E+01  5250   0.801E+01 0.829E+01
DMP:   6    -0.475970099883E+01   -0.35609E+01   -0.23181E+01  5250   0.369E+01 0.552E+01
DMP:   7    -0.691575621946E+01   -0.21561E+01   -0.14916E+01  5250   0.222E+01 0.396E+01
DMP:   8    -0.822867429699E+01   -0.13129E+01   -0.70243E+00  5250   0.980E+00 0.203E+01
DMP:   9    -0.887120436030E+01   -0.64253E+00   -0.42802E+00  5250   0.597E+00 0.124E+01
DMP:  10    -0.918525873975E+01   -0.31405E+00   -0.19125E+00  5250   0.253E+00 0.588E+00
DMP:  11    -0.936320530466E+01   -0.17795E+00   -0.10881E+00  5250   0.140E+00 0.344E+00
DMP:  12    -0.945571072960E+01   -0.92505E-01   -0.55193E-01  5250   0.684E-01 0.182E+00
DMP:  13    -0.950394412321E+01   -0.48233E-01   -0.28518E-01  5250   0.344E-01 0.967E-01
DMP:  14    -0.952922178586E+01   -0.25278E-01   -0.15029E-01  5250   0.179E-01 0.516E-01
DMP:  15    -0.954267471761E+01   -0.13453E-01   -0.80437E-02  5250   0.948E-02 0.278E-01
DMP:  16    -0.954995428592E+01   -0.72796E-02   -0.43901E-02  5250   0.512E-02 0.153E-01
DMP:  17    -0.955396096645E+01   -0.40067E-02   -0.24310E-02  5250   0.279E-02 0.859E-02
DMP:  18    -0.955618560346E+01   -0.22246E-02   -0.13438E-02  5250   0.152E-02 0.482E-02
DMP:  19    -0.955741429189E+01   -0.12287E-02   -0.73593E-03  5250   0.817E-03 0.268E-02
DMP:  20    -0.955808499950E+01   -0.67071E-03   -0.39515E-03  5250   0.431E-03 0.146E-02
DMP:  21    -0.955844081777E+01   -0.35582E-03   -0.20340E-03  5250   0.218E-03 0.761E-03
DMP:  22    -0.955862055893E+01   -0.17974E-03   -0.99078E-04  5250   0.104E-03 0.375E-03
DMP:  23    -0.955870651873E+01   -0.85960E-04   -0.45841E-04  5250   0.476E-04 0.175E-03
DMP:  24    -0.955874573515E+01   -0.39216E-04   -0.20378E-04  5250   0.209E-04 0.787E-04
DMP:  25    -0.955876299658E+01   -0.17261E-04   -0.87930E-05  5250   0.891E-05 0.342E-04
DMP:  26    -0.955877038559E+01   -0.73890E-05   -0.37000E-05  5250   0.371E-05 0.145E-04
   1 F= -.95587704E+01 E0= -.95588575E+01  d E =0.261270E-03  mag=    -0.0000    -0.0000     0.0000
