       N       E                     dE             d eps       ncg     rms          ort
DAV:   1     0.317807775295E+03    0.31781E+03   -0.11377E+04  6264   0.167E+03
DAV:   2     0.126847896328E+03   -0.19096E+03   -0.17385E+03  6264   0.342E+02
DAV:   3     0.736746156511E+02   -0.53173E+02   -0.51495E+02  6264   0.830E+01
DAV:   4     0.662196803844E+02   -0.74549E+01   -0.73586E+01  6264   0.345E+01
DAV:   5     0.654907909966E+02   -0.72889E+00   -0.72718E+00  6264   0.115E+01
SDA:   6    -0.103885441732E+02   -0.75879E+02   -0.22036E+00  6264   0.551E+00 0.000E+00
DMP:   7    -0.105481571450E+02   -0.15961E+00   -0.10829E+00  6264   0.175E+00 0.250E+00
DMP:   8    -0.106246536275E+02   -0.76496E-01   -0.49522E-01  6264   0.802E-01 0.114E+00
DMP:   9    -0.106602524271E+02   -0.35599E-01   -0.18150E-01  6264   0.243E-01 0.551E-01
DMP:  10    -0.106722426982E+02   -0.11990E-01   -0.60628E-02  6264   0.950E-02 0.148E-01
DMP:  11    -0.106766082445E+02   -0.43655E-02   -0.23932E-02  6264   0.341E-02 0.674E-02
DMP:  12    -0.106781978207E+02   -0.15896E-02   -0.66506E-03  6264   0.906E-03 0.198E-02
DMP:  13    -0.106786594938E+02   -0.46167E-03   -0.34280E-03  6264   0.607E-03 0.654E-03
DMP:  14    -0.106789180556E+02   -0.25856E-03   -0.16647E-03  6264   0.246E-03 0.445E-03
DMP:  15    -0.106790433213E+02   -0.12527E-03   -0.85688E-04  6264   0.132E-03 0.216E-03
DMP:  16    -0.106791127852E+02   -0.69464E-04   -0.45005E-04  6264   0.606E-04 0.136E-03
   1 F= -.10679113E+02 E0= -.10679113E+02  d E =-.298740E-19  mag=    -0.0000
