 vasp.5.4.4.18Apr17-6-g9f103f2a35 (build Sep 01 2023 15:42:28) complex          
  
 executed on             LinuxIFC date 2023.11.23  00:50:06
 running on   54 total cores
 distrk:  each k-point on    9 cores,    6 groups
 distr:  one band on NCORES_PER_BAND=   3 cores,    3 groups


--------------------------------------------------------------------------------------------------------


 INCAR:
 POTCAR:    PAW_PBE Ge_d 03Jul2007                

 ----------------------------------------------------------------------------- 
|                                                                             |
|           W    W    AA    RRRRR   N    N  II  N    N   GGGG   !!!           |
|           W    W   A  A   R    R  NN   N  II  NN   N  G    G  !!!           |
|           W    W  A    A  R    R  N N  N  II  N N  N  G       !!!           |
|           W WW W  AAAAAA  RRRRR   N  N N  II  N  N N  G  GGG   !            |
|           WW  WW  A    A  R   R   N   NN  II  N   NN  G    G                |
|           W    W  A    A  R    R  N    N  II  N    N   GGGG   !!!           |
|                                                                             |
|      For optimal performance we recommend to set                            |
|        NCORE= 4 - approx SQRT( number of cores)                             |
|      NCORE specifies how many cores store one orbital (NPAR=cpu/NCORE).     |
|      This setting can  greatly improve the performance of VASP for DFT.     |
|      The default,   NCORE=1            might be grossly inefficient         |
|      on modern multi-core architectures or massively parallel machines.     |
|      Do your own testing !!!!                                               |
|      Unfortunately you need to use the default for GW and RPA calculations. |
|      (for HF NCORE is supported but not extensively tested yet)             |
|                                                                             |
 ----------------------------------------------------------------------------- 


 ----------------------------------------------------------------------------- 
|                                                                             |
|           W    W    AA    RRRRR   N    N  II  N    N   GGGG   !!!           |
|           W    W   A  A   R    R  NN   N  II  NN   N  G    G  !!!           |
|           W    W  A    A  R    R  N N  N  II  N N  N  G       !!!           |
|           W WW W  AAAAAA  RRRRR   N  N N  II  N  N N  G  GGG   !            |
|           WW  WW  A    A  R   R   N   NN  II  N   NN  G    G                |
|           W    W  A    A  R    R  N    N  II  N    N   GGGG   !!!           |
|                                                                             |
|      You have enabled k-point parallelism (KPAR>1).                         |
|      This developmental code was originally  written by Paul Kent at ORNL,  |
|      and carefully double checked in Vienna.                                |
|      GW as well as linear response parallelism added by Martijn Marsman     |
|      and Georg Kresse.                                                      |
|      Carefully verify results versus KPAR=1.                                |
|      Report problems to Paul Kent and Vienna.                               |
|                                                                             |
 ----------------------------------------------------------------------------- 

 POTCAR:    PAW_PBE Ge_d 03Jul2007                
   VRHFIN =Ge: 3d4s4p                                                           
   LEXCH  = PE                                                                  
   EATOM  =  2596.2402 eV,  190.8183 Ry                                         
                                                                                
   TITEL  = PAW_PBE Ge_d 03Jul2007                                              
   LULTRA =        F    use ultrasoft PP ?                                      
   IUNSCR =        1    unscreen: 0-lin 1-nonlin 2-no                           
   RPACOR =    2.000    partial core radius                                     
   POMASS =   72.610; ZVAL   =   14.000    mass and valenz                      
   RCORE  =    2.300    outmost cutoff radius                                   
   RWIGS  =    2.300; RWIGS  =    1.217    wigner-seitz radius (au A)           
   ENMAX  =  310.294; ENMIN  =  232.720 eV                                      
   ICORE  =        3    local potential                                         
   LCOR   =        T    correct aug charges                                     
   LPAW   =        T    paw PP                                                  
   EAUG   =  531.356                                                            
   DEXC   =    0.000                                                            
   RMAX   =    2.342    core radius for proj-oper                               
   RAUG   =    1.300    factor for augmentation sphere                          
   RDEP   =    2.318    radius for radial grids                                 
   RDEPT  =    1.783    core radius for aug-charge                              
                                                                                
   Atomic configuration                                                         
    9 entries                                                                   
     n  l   j            E        occ.                                          
     1  0  0.50    -10959.8463   2.0000                                         
     2  0  0.50     -1371.6056   2.0000                                         
     2  1  1.50     -1198.4791   6.0000                                         
     3  0  0.50      -168.4733   2.0000                                         
     3  1  1.50      -115.6019   6.0000                                         
     3  2  2.50       -29.3106  10.0000                                         
     4  0  0.50       -11.7309   2.0000                                         
     4  1  0.50        -3.8952   2.0000                                         
     4  3  2.50        -4.0817   0.0000                                         
   Description                                                                  
     l       E           TYP  RCUT    TYP  RCUT                                 
     2    -29.3105938     23  2.200                                             
     2    -13.6058260     23  2.200                                             
     0    -11.7309493     23  2.300                                             
     0     -7.4578696     23  2.300                                             
     1     -3.8952261     23  2.300                                             
     1      6.1178114     23  2.300                                             
     3     -1.3605826     23  2.300                                             
  local pseudopotential read in
  partial core-charges read in
  partial kinetic energy density read in
  atomic valenz-charges read in
  non local Contribution for L=           2  read in
    real space projection operators read in
  non local Contribution for L=           2  read in
    real space projection operators read in
  non local Contribution for L=           0  read in
    real space projection operators read in
  non local Contribution for L=           0  read in
    real space projection operators read in
  non local Contribution for L=           1  read in
    real space projection operators read in
  non local Contribution for L=           1  read in
    real space projection operators read in
    PAW grid and wavefunctions read in
 
   number of l-projection  operators is LMAX  =           6
   number of lm-projection operators is LMMAX =          18
 
  PAW_PBE Ge_d 03Jul2007                :
 energy of atom  1       EATOM=-2596.2402
 kinetic energy error for atom=    0.0077 (will be added to EATOM!!)
 
 
 POSCAR: Ge                                      
  positions in direct lattice
  No initial velocities read in
 exchange correlation table for  LEXCH =        8
   RHO(1)=    0.500       N(1)  =     2000
   RHO(2)=  100.500       N(2)  =     4000
 


--------------------------------------------------------------------------------------------------------


 ion  position               nearest neighbor table
   1  0.000  0.000  0.000-   2 2.44   2 2.44   2 2.44   2 2.44
   2  0.250  0.250  0.250-   1 2.44   1 2.44   1 2.44   1 2.44
 
  LATTYP: Found a face centered cubic cell.
 ALAT       =     5.6330000000
  
  Lattice vectors:
  
 A1 = (   0.0000000000,   2.8165000000,   2.8165000000)
 A2 = (   2.8165000000,   0.0000000000,   2.8165000000)
 A3 = (   2.8165000000,   2.8165000000,   0.0000000000)


Analysis of symmetry for initial positions (statically):
=====================================================================
 Subroutine PRICEL returns:
 Original cell was already a primitive cell.
 

 Routine SETGRP: Setting up the symmetry group for a 
 face centered cubic supercell.


 Subroutine GETGRP returns: Found 48 space group operations
 (whereof 24 operations were pure point group operations)
 out of a pool of 48 trial point group operations.


The static configuration has the point symmetry T_d .
 The point group associated with its full space group is O_h .


Analysis of symmetry for dynamics (positions and initial velocities):
=====================================================================
 Subroutine PRICEL returns:
 Original cell was already a primitive cell.
 

 Routine SETGRP: Setting up the symmetry group for a 
 face centered cubic supercell.


 Subroutine GETGRP returns: Found 48 space group operations
 (whereof 24 operations were pure point group operations)
 out of a pool of 48 trial point group operations.


The dynamic configuration has the point symmetry T_d .
 The point group associated with its full space group is O_h .


Analysis of structural, dynamic, and magnetic symmetry:
=====================================================================
 Subroutine PRICEL returns:
 Original cell was already a primitive cell.
 

 Routine SETGRP: Setting up the symmetry group for a 
 face centered cubic supercell.


 Subroutine GETGRP returns: Found 48 space group operations
 (whereof 24 operations were pure point group operations)
 out of a pool of 48 trial point group operations.


The magnetic configuration has the point symmetry T_d .
 The point group associated with its full space group is O_h .


 Subroutine INISYM returns: Found 48 space group operations
 (whereof 24 operations are pure point group operations),
 and found     1 'primitive' translations

 
 
 KPOINTS: BayesOpt4dftu: Kpoints from user input a
  k-points in reciprocal lattice
Space group operators:
 irot       det(A)        alpha          n_x          n_y          n_z        tau_x        tau_y        tau_z
    1     1.000000     0.000000     1.000000     0.000000     0.000000     0.000000     0.000000     0.000000
    2     1.000000   120.000000    -0.577350    -0.577350    -0.577350     0.000000     0.000000     0.000000
    3     1.000000   120.000000     0.577350     0.577350     0.577350     0.000000     0.000000     0.000000
    4    -1.000000    90.000000     0.000000     0.000000    -1.000000     0.000000     0.000000     0.000000
    5    -1.000000   180.000000     0.000000     0.707107     0.707107     0.000000     0.000000     0.000000
    6    -1.000000    90.000000     0.000000     1.000000     0.000000     0.000000     0.000000     0.000000
    7     1.000000   180.000000     0.000000     0.000000     1.000000     0.000000     0.000000     0.000000
    8     1.000000   120.000000    -0.577350     0.577350     0.577350     0.000000     0.000000     0.000000
    9     1.000000   120.000000    -0.577350     0.577350    -0.577350     0.000000     0.000000     0.000000
   10    -1.000000    90.000000     0.000000     0.000000     1.000000     0.000000     0.000000     0.000000
   11    -1.000000    90.000000    -1.000000     0.000000     0.000000     0.000000     0.000000     0.000000
   12    -1.000000   180.000000     0.707107     0.000000     0.707107     0.000000     0.000000     0.000000
   13     1.000000   120.000000     0.577350    -0.577350     0.577350     0.000000     0.000000     0.000000
   14     1.000000   120.000000    -0.577350    -0.577350     0.577350     0.000000     0.000000     0.000000
   15     1.000000   180.000000     1.000000     0.000000     0.000000     0.000000     0.000000     0.000000
   16    -1.000000    90.000000     0.000000    -1.000000     0.000000     0.000000     0.000000     0.000000
   17    -1.000000   180.000000     0.707107     0.707107     0.000000     0.000000     0.000000     0.000000
   18    -1.000000    90.000000     1.000000     0.000000     0.000000     0.000000     0.000000     0.000000
   19     1.000000   120.000000     0.577350    -0.577350    -0.577350     0.000000     0.000000     0.000000
   20     1.000000   180.000000     0.000000     1.000000     0.000000     0.000000     0.000000     0.000000
   21     1.000000   120.000000     0.577350     0.577350    -0.577350     0.000000     0.000000     0.000000
   22    -1.000000   180.000000     0.000000    -0.707107     0.707107     0.000000     0.000000     0.000000
   23    -1.000000   180.000000     0.707107    -0.707107     0.000000     0.000000     0.000000     0.000000
   24    -1.000000   180.000000     0.707107     0.000000    -0.707107     0.000000     0.000000     0.000000
   25    -1.000000     0.000000     1.000000     0.000000     0.000000     0.250000     0.250000     0.250000
   26    -1.000000   120.000000    -0.577350    -0.577350    -0.577350     0.250000     0.250000     0.250000
   27    -1.000000   120.000000     0.577350     0.577350     0.577350     0.250000     0.250000     0.250000
   28     1.000000    90.000000     0.000000     0.000000    -1.000000     0.250000     0.250000     0.250000
   29     1.000000   180.000000     0.000000     0.707107     0.707107     0.250000     0.250000     0.250000
   30     1.000000    90.000000     0.000000     1.000000     0.000000     0.250000     0.250000     0.250000
   31    -1.000000   180.000000     0.000000     0.000000     1.000000     0.250000     0.250000     0.250000
   32    -1.000000   120.000000    -0.577350     0.577350     0.577350     0.250000     0.250000     0.250000
   33    -1.000000   120.000000    -0.577350     0.577350    -0.577350     0.250000     0.250000     0.250000
   34     1.000000    90.000000     0.000000     0.000000     1.000000     0.250000     0.250000     0.250000
   35     1.000000    90.000000    -1.000000     0.000000     0.000000     0.250000     0.250000     0.250000
   36     1.000000   180.000000     0.707107     0.000000     0.707107     0.250000     0.250000     0.250000
   37    -1.000000   120.000000     0.577350    -0.577350     0.577350     0.250000     0.250000     0.250000
   38    -1.000000   120.000000    -0.577350    -0.577350     0.577350     0.250000     0.250000     0.250000
   39    -1.000000   180.000000     1.000000     0.000000     0.000000     0.250000     0.250000     0.250000
   40     1.000000    90.000000     0.000000    -1.000000     0.000000     0.250000     0.250000     0.250000
   41     1.000000   180.000000     0.707107     0.707107     0.000000     0.250000     0.250000     0.250000
   42     1.000000    90.000000     1.000000     0.000000     0.000000     0.250000     0.250000     0.250000
   43    -1.000000   120.000000     0.577350    -0.577350    -0.577350     0.250000     0.250000     0.250000
   44    -1.000000   180.000000     0.000000     1.000000     0.000000     0.250000     0.250000     0.250000
   45    -1.000000   120.000000     0.577350     0.577350    -0.577350     0.250000     0.250000     0.250000
   46     1.000000   180.000000     0.000000    -0.707107     0.707107     0.250000     0.250000     0.250000
   47     1.000000   180.000000     0.707107    -0.707107     0.000000     0.250000     0.250000     0.250000
   48     1.000000   180.000000     0.707107     0.000000    -0.707107     0.250000     0.250000     0.250000

 ----------------------------------------------------------------------------- 
|                                                                             |
|           W    W    AA    RRRRR   N    N  II  N    N   GGGG   !!!           |
|           W    W   A  A   R    R  NN   N  II  NN   N  G    G  !!!           |
|           W    W  A    A  R    R  N N  N  II  N N  N  G       !!!           |
|           W WW W  AAAAAA  RRRRR   N  N N  II  N  N N  G  GGG   !            |
|           WW  WW  A    A  R   R   N   NN  II  N   NN  G    G                |
|           W    W  A    A  R    R  N    N  II  N    N   GGGG   !!!           |
|                                                                             |
|      Your generating k-point grid is not commensurate to the symmetry       |
|      of the lattice.  This can cause   slow convergence with respect        |
|      to k-points for HF type calculations                                   |
|      suggested SOLUTIONS:                                                   |
|       ) if not already the case, use automatic k-point generation           |
|       ) shift your grid to Gamma (G) (e.g. required for hex or fcc lattice) |
|                                                                             |
 ----------------------------------------------------------------------------- 

 
 Subroutine IBZKPT_HF returns following result:
 ==============================================
 
 Found    316 k-points in 1st BZ
 the following    316 k-points will be used (e.g. in the exchange kernel)
 Following reciprocal coordinates:   # in IRBZ
  0.000000  0.000000  0.000000    0.00462963   1 t-inv F
  0.166667  0.000000  0.000000    0.00462963   2 t-inv F
  0.333333  0.000000  0.000000    0.00462963   3 t-inv F
  0.500000  0.000000  0.000000    0.00462963   4 t-inv F
  0.166667  0.166667  0.000000    0.00462963   5 t-inv F
  0.333333  0.166667  0.000000    0.00462963   6 t-inv F
  0.500000  0.166667  0.000000    0.00462963   7 t-inv F
 -0.333333  0.166667  0.000000    0.00462963   8 t-inv F
 -0.166667  0.166667  0.000000    0.00462963   9 t-inv F
  0.333333  0.333333  0.000000    0.00462963  10 t-inv F
  0.500000  0.333333  0.000000    0.00462963  11 t-inv F
 -0.333333  0.333333  0.000000    0.00462963  12 t-inv F
  0.500000  0.500000  0.000000    0.00462963  13 t-inv F
  0.500000  0.333333  0.166667    0.00462963  14 t-inv F
 -0.333333  0.333333  0.166667    0.00462963  15 t-inv F
 -0.333333  0.500000  0.166667    0.00462963  16 t-inv F
  0.500000  0.500000  0.500000    0.00000000  17 t-inv F
  0.489796  0.489796  0.489796    0.00000000  18 t-inv F
  0.479592  0.479592  0.479592    0.00000000  19 t-inv F
  0.469388  0.469388  0.469388    0.00000000  20 t-inv F
  0.459184  0.459184  0.459184    0.00000000  21 t-inv F
  0.448980  0.448980  0.448980    0.00000000  22 t-inv F
  0.438776  0.438776  0.438776    0.00000000  23 t-inv F
  0.428571  0.428571  0.428571    0.00000000  24 t-inv F
  0.418367  0.418367  0.418367    0.00000000  25 t-inv F
  0.408163  0.408163  0.408163    0.00000000  26 t-inv F
  0.397959  0.397959  0.397959    0.00000000  27 t-inv F
  0.387755  0.387755  0.387755    0.00000000  28 t-inv F
  0.377551  0.377551  0.377551    0.00000000  29 t-inv F
  0.367347  0.367347  0.367347    0.00000000  30 t-inv F
  0.357143  0.357143  0.357143    0.00000000  31 t-inv F
  0.346939  0.346939  0.346939    0.00000000  32 t-inv F
  0.336735  0.336735  0.336735    0.00000000  33 t-inv F
  0.326531  0.326531  0.326531    0.00000000  34 t-inv F
  0.316327  0.316327  0.316327    0.00000000  35 t-inv F
  0.306122  0.306122  0.306122    0.00000000  36 t-inv F
  0.295918  0.295918  0.295918    0.00000000  37 t-inv F
  0.285714  0.285714  0.285714    0.00000000  38 t-inv F
  0.275510  0.275510  0.275510    0.00000000  39 t-inv F
  0.265306  0.265306  0.265306    0.00000000  40 t-inv F
  0.255102  0.255102  0.255102    0.00000000  41 t-inv F
  0.244898  0.244898  0.244898    0.00000000  42 t-inv F
  0.234694  0.234694  0.234694    0.00000000  43 t-inv F
  0.224490  0.224490  0.224490    0.00000000  44 t-inv F
  0.214286  0.214286  0.214286    0.00000000  45 t-inv F
  0.204082  0.204082  0.204082    0.00000000  46 t-inv F
  0.193878  0.193878  0.193878    0.00000000  47 t-inv F
  0.183673  0.183673  0.183673    0.00000000  48 t-inv F
  0.173469  0.173469  0.173469    0.00000000  49 t-inv F
  0.163265  0.163265  0.163265    0.00000000  50 t-inv F
  0.153061  0.153061  0.153061    0.00000000  51 t-inv F
  0.142857  0.142857  0.142857    0.00000000  52 t-inv F
  0.132653  0.132653  0.132653    0.00000000  53 t-inv F
  0.122449  0.122449  0.122449    0.00000000  54 t-inv F
  0.112245  0.112245  0.112245    0.00000000  55 t-inv F
  0.102041  0.102041  0.102041    0.00000000  56 t-inv F
  0.091837  0.091837  0.091837    0.00000000  57 t-inv F
  0.081633  0.081633  0.081633    0.00000000  58 t-inv F
  0.071429  0.071429  0.071429    0.00000000  59 t-inv F
  0.061224  0.061224  0.061224    0.00000000  60 t-inv F
  0.051020  0.051020  0.051020    0.00000000  61 t-inv F
  0.040816  0.040816  0.040816    0.00000000  62 t-inv F
  0.030612  0.030612  0.030612    0.00000000  63 t-inv F
  0.020408  0.020408  0.020408    0.00000000  64 t-inv F
  0.010204  0.010204  0.010204    0.00000000  65 t-inv F
  0.000000  0.000000  0.000000    0.00000000  66 t-inv F
  0.000000  0.000000  0.000000    0.00000000  67 t-inv F
  0.010204  0.000000  0.010204    0.00000000  68 t-inv F
  0.020408  0.000000  0.020408    0.00000000  69 t-inv F
  0.030612  0.000000  0.030612    0.00000000  70 t-inv F
  0.040816  0.000000  0.040816    0.00000000  71 t-inv F
  0.051020  0.000000  0.051020    0.00000000  72 t-inv F
  0.061224  0.000000  0.061224    0.00000000  73 t-inv F
  0.071429  0.000000  0.071429    0.00000000  74 t-inv F
  0.081633  0.000000  0.081633    0.00000000  75 t-inv F
  0.091837  0.000000  0.091837    0.00000000  76 t-inv F
  0.102041  0.000000  0.102041    0.00000000  77 t-inv F
  0.112245  0.000000  0.112245    0.00000000  78 t-inv F
  0.122449  0.000000  0.122449    0.00000000  79 t-inv F
  0.132653  0.000000  0.132653    0.00000000  80 t-inv F
  0.142857  0.000000  0.142857    0.00000000  81 t-inv F
  0.153061  0.000000  0.153061    0.00000000  82 t-inv F
  0.163265  0.000000  0.163265    0.00000000  83 t-inv F
  0.173469  0.000000  0.173469    0.00000000  84 t-inv F
  0.183673  0.000000  0.183673    0.00000000  85 t-inv F
  0.193878  0.000000  0.193878    0.00000000  86 t-inv F
  0.204082  0.000000  0.204082    0.00000000  87 t-inv F
  0.214286  0.000000  0.214286    0.00000000  88 t-inv F
  0.224490  0.000000  0.224490    0.00000000  89 t-inv F
  0.234694  0.000000  0.234694    0.00000000  90 t-inv F
  0.244898  0.000000  0.244898    0.00000000  91 t-inv F
  0.255102  0.000000  0.255102    0.00000000  92 t-inv F
  0.265306  0.000000  0.265306    0.00000000  93 t-inv F
  0.275510  0.000000  0.275510    0.00000000  94 t-inv F
  0.285714  0.000000  0.285714    0.00000000  95 t-inv F
  0.295918  0.000000  0.295918    0.00000000  96 t-inv F
  0.306122  0.000000  0.306122    0.00000000  97 t-inv F
  0.316327  0.000000  0.316327    0.00000000  98 t-inv F
  0.326531  0.000000  0.326531    0.00000000  99 t-inv F
  0.336735  0.000000  0.336735    0.00000000 100 t-inv F
  0.346939  0.000000  0.346939    0.00000000 101 t-inv F
  0.357143  0.000000  0.357143    0.00000000 102 t-inv F
  0.367347  0.000000  0.367347    0.00000000 103 t-inv F
  0.377551  0.000000  0.377551    0.00000000 104 t-inv F
  0.387755  0.000000  0.387755    0.00000000 105 t-inv F
  0.397959  0.000000  0.397959    0.00000000 106 t-inv F
  0.408163  0.000000  0.408163    0.00000000 107 t-inv F
  0.418367  0.000000  0.418367    0.00000000 108 t-inv F
  0.428571  0.000000  0.428571    0.00000000 109 t-inv F
  0.438776  0.000000  0.438776    0.00000000 110 t-inv F
  0.448980  0.000000  0.448980    0.00000000 111 t-inv F
  0.459184  0.000000  0.459184    0.00000000 112 t-inv F
  0.469388  0.000000  0.469388    0.00000000 113 t-inv F
  0.479592  0.000000  0.479592    0.00000000 114 t-inv F
  0.489796  0.000000  0.489796    0.00000000 115 t-inv F
  0.500000  0.000000  0.500000    0.00000000 116 t-inv F
  0.000000  0.166667  0.000000    0.00462963   2 t-inv F
  0.000000  0.000000  0.166667    0.00462963   2 t-inv F
 -0.166667 -0.166667 -0.166667    0.00462963   2 t-inv F
 -0.166667  0.000000  0.000000    0.00462963   2 t-inv F
  0.000000 -0.166667  0.000000    0.00462963   2 t-inv F
  0.000000  0.000000 -0.166667    0.00462963   2 t-inv F
  0.166667  0.166667  0.166667    0.00462963   2 t-inv F
  0.000000  0.333333  0.000000    0.00462963   3 t-inv F
  0.000000  0.000000  0.333333    0.00462963   3 t-inv F
 -0.333333 -0.333333 -0.333333    0.00462963   3 t-inv F
 -0.333333  0.000000  0.000000    0.00462963   3 t-inv F
  0.000000 -0.333333  0.000000    0.00462963   3 t-inv F
  0.000000  0.000000 -0.333333    0.00462963   3 t-inv F
  0.333333  0.333333  0.333333    0.00462963   3 t-inv F
  0.000000  0.500000  0.000000    0.00462963   4 t-inv F
  0.000000  0.000000  0.500000    0.00462963   4 t-inv F
 -0.500000 -0.500000 -0.500000    0.00462963   4 t-inv F
  0.000000  0.166667  0.166667    0.00462963   5 t-inv F
  0.166667  0.000000  0.166667    0.00462963   5 t-inv F
 -0.166667 -0.166667  0.000000    0.00462963   5 t-inv F
 -0.166667  0.000000 -0.166667    0.00462963   5 t-inv F
  0.000000 -0.166667 -0.166667    0.00462963   5 t-inv F
  0.000000  0.333333  0.166667    0.00462963   6 t-inv F
  0.166667  0.000000  0.333333    0.00462963   6 t-inv F
 -0.166667 -0.166667  0.166667    0.00462963   6 t-inv F
 -0.333333 -0.166667 -0.333333    0.00462963   6 t-inv F
  0.166667  0.333333  0.000000    0.00462963   6 t-inv F
  0.166667 -0.166667 -0.166667    0.00462963   6 t-inv F
 -0.333333 -0.333333 -0.166667    0.00462963   6 t-inv F
  0.000000  0.166667  0.333333    0.00462963   6 t-inv F
 -0.166667  0.166667 -0.166667    0.00462963   6 t-inv F
 -0.166667 -0.333333 -0.333333    0.00462963   6 t-inv F
  0.333333  0.000000  0.166667    0.00462963   6 t-inv F
 -0.333333 -0.166667  0.000000    0.00462963   6 t-inv F
  0.000000 -0.333333 -0.166667    0.00462963   6 t-inv F
 -0.166667  0.000000 -0.333333    0.00462963   6 t-inv F
  0.166667  0.166667 -0.166667    0.00462963   6 t-inv F
  0.333333  0.166667  0.333333    0.00462963   6 t-inv F
 -0.166667 -0.333333  0.000000    0.00462963   6 t-inv F
 -0.166667  0.166667  0.166667    0.00462963   6 t-inv F
  0.333333  0.333333  0.166667    0.00462963   6 t-inv F
  0.000000 -0.166667 -0.333333    0.00462963   6 t-inv F
  0.166667 -0.166667  0.166667    0.00462963   6 t-inv F
  0.166667  0.333333  0.333333    0.00462963   6 t-inv F
 -0.333333  0.000000 -0.166667    0.00462963   6 t-inv F
  0.000000  0.500000  0.166667    0.00462963   7 t-inv F
  0.166667  0.000000  0.500000    0.00462963   7 t-inv F
 -0.166667 -0.166667  0.333333    0.00462963   7 t-inv F
 -0.500000 -0.333333 -0.500000    0.00462963   7 t-inv F
  0.166667  0.500000  0.000000    0.00462963   7 t-inv F
  0.333333 -0.166667 -0.166667    0.00462963   7 t-inv F
 -0.500000 -0.500000 -0.333333    0.00462963   7 t-inv F
  0.000000  0.166667  0.500000    0.00462963   7 t-inv F
 -0.166667  0.333333 -0.166667    0.00462963   7 t-inv F
 -0.333333 -0.500000 -0.500000    0.00462963   7 t-inv F
  0.500000  0.000000  0.166667    0.00462963   7 t-inv F
 -0.500000 -0.166667  0.000000    0.00462963   7 t-inv F
  0.000000 -0.500000 -0.166667    0.00462963   7 t-inv F
 -0.166667  0.000000 -0.500000    0.00462963   7 t-inv F
  0.166667  0.166667 -0.333333    0.00462963   7 t-inv F
  0.500000  0.333333  0.500000    0.00462963   7 t-inv F
 -0.166667 -0.500000  0.000000    0.00462963   7 t-inv F
 -0.333333  0.166667  0.166667    0.00462963   7 t-inv F
  0.500000  0.500000  0.333333    0.00462963   7 t-inv F
  0.000000 -0.166667 -0.500000    0.00462963   7 t-inv F
  0.166667 -0.333333  0.166667    0.00462963   7 t-inv F
  0.333333  0.500000  0.500000    0.00462963   7 t-inv F
 -0.500000  0.000000 -0.166667    0.00462963   7 t-inv F
  0.000000 -0.333333  0.166667    0.00462963   8 t-inv F
  0.166667  0.000000 -0.333333    0.00462963   8 t-inv F
 -0.166667 -0.166667 -0.500000    0.00462963   8 t-inv F
  0.333333  0.500000  0.333333    0.00462963   8 t-inv F
  0.166667 -0.333333  0.000000    0.00462963   8 t-inv F
 -0.500000 -0.166667 -0.166667    0.00462963   8 t-inv F
  0.333333  0.333333  0.500000    0.00462963   8 t-inv F
  0.000000  0.166667 -0.333333    0.00462963   8 t-inv F
 -0.166667 -0.500000 -0.166667    0.00462963   8 t-inv F
  0.500000  0.333333  0.333333    0.00462963   8 t-inv F
 -0.333333  0.000000  0.166667    0.00462963   8 t-inv F
  0.333333 -0.166667  0.000000    0.00462963   8 t-inv F
  0.000000  0.333333 -0.166667    0.00462963   8 t-inv F
 -0.166667  0.000000  0.333333    0.00462963   8 t-inv F
  0.166667  0.166667  0.500000    0.00462963   8 t-inv F
 -0.333333 -0.500000 -0.333333    0.00462963   8 t-inv F
 -0.166667  0.333333  0.000000    0.00462963   8 t-inv F
  0.500000  0.166667  0.166667    0.00462963   8 t-inv F
 -0.333333 -0.333333 -0.500000    0.00462963   8 t-inv F
  0.000000 -0.166667  0.333333    0.00462963   8 t-inv F
  0.166667  0.500000  0.166667    0.00462963   8 t-inv F
 -0.500000 -0.333333 -0.333333    0.00462963   8 t-inv F
  0.333333  0.000000 -0.166667    0.00462963   8 t-inv F
  0.000000 -0.166667  0.166667    0.00462963   9 t-inv F
  0.166667  0.000000 -0.166667    0.00462963   9 t-inv F
 -0.166667 -0.166667 -0.333333    0.00462963   9 t-inv F
  0.166667  0.333333  0.166667    0.00462963   9 t-inv F
  0.166667 -0.166667  0.000000    0.00462963   9 t-inv F
 -0.333333 -0.166667 -0.166667    0.00462963   9 t-inv F
  0.166667  0.166667  0.333333    0.00462963   9 t-inv F
  0.000000  0.166667 -0.166667    0.00462963   9 t-inv F
 -0.166667 -0.333333 -0.166667    0.00462963   9 t-inv F
  0.333333  0.166667  0.166667    0.00462963   9 t-inv F
 -0.166667  0.000000  0.166667    0.00462963   9 t-inv F
  0.000000  0.333333  0.333333    0.00462963  10 t-inv F
  0.333333  0.000000  0.333333    0.00462963  10 t-inv F
 -0.333333 -0.333333  0.000000    0.00462963  10 t-inv F
 -0.333333  0.000000 -0.333333    0.00462963  10 t-inv F
  0.000000 -0.333333 -0.333333    0.00462963  10 t-inv F
  0.000000  0.500000  0.333333    0.00462963  11 t-inv F
  0.333333  0.000000  0.500000    0.00462963  11 t-inv F
 -0.333333 -0.333333  0.166667    0.00462963  11 t-inv F
 -0.500000 -0.166667 -0.500000    0.00462963  11 t-inv F
  0.333333  0.500000  0.000000    0.00462963  11 t-inv F
  0.166667 -0.333333 -0.333333    0.00462963  11 t-inv F
 -0.500000 -0.500000 -0.166667    0.00462963  11 t-inv F
  0.000000  0.333333  0.500000    0.00462963  11 t-inv F
 -0.333333  0.166667 -0.333333    0.00462963  11 t-inv F
 -0.166667 -0.500000 -0.500000    0.00462963  11 t-inv F
  0.500000  0.000000  0.333333    0.00462963  11 t-inv F
 -0.500000 -0.333333  0.000000    0.00462963  11 t-inv F
  0.000000 -0.500000 -0.333333    0.00462963  11 t-inv F
 -0.333333  0.000000 -0.500000    0.00462963  11 t-inv F
  0.333333  0.333333 -0.166667    0.00462963  11 t-inv F
  0.500000  0.166667  0.500000    0.00462963  11 t-inv F
 -0.333333 -0.500000  0.000000    0.00462963  11 t-inv F
 -0.166667  0.333333  0.333333    0.00462963  11 t-inv F
  0.500000  0.500000  0.166667    0.00462963  11 t-inv F
  0.000000 -0.333333 -0.500000    0.00462963  11 t-inv F
  0.333333 -0.166667  0.333333    0.00462963  11 t-inv F
  0.166667  0.500000  0.500000    0.00462963  11 t-inv F
 -0.500000  0.000000 -0.333333    0.00462963  11 t-inv F
  0.000000 -0.333333  0.333333    0.00462963  12 t-inv F
  0.333333  0.000000 -0.333333    0.00462963  12 t-inv F
 -0.333333 -0.333333 -0.666667    0.00462963  12 t-inv F
  0.333333  0.666667  0.333333    0.00462963  12 t-inv F
  0.333333 -0.333333  0.000000    0.00462963  12 t-inv F
 -0.666667 -0.333333 -0.333333    0.00462963  12 t-inv F
  0.333333  0.333333  0.666667    0.00462963  12 t-inv F
  0.000000  0.333333 -0.333333    0.00462963  12 t-inv F
 -0.333333 -0.666667 -0.333333    0.00462963  12 t-inv F
  0.666667  0.333333  0.333333    0.00462963  12 t-inv F
 -0.333333  0.000000  0.333333    0.00462963  12 t-inv F
  0.000000  0.500000  0.500000    0.00462963  13 t-inv F
  0.500000  0.000000  0.500000    0.00462963  13 t-inv F
  0.166667  0.500000  0.333333    0.00462963  14 t-inv F
  0.333333  0.166667  0.500000    0.00462963  14 t-inv F
 -0.333333 -0.166667  0.166667    0.00462963  14 t-inv F
 -0.500000 -0.166667 -0.333333    0.00462963  14 t-inv F
 -0.166667  0.333333  0.166667    0.00462963  14 t-inv F
  0.166667  0.333333 -0.166667    0.00462963  14 t-inv F
  0.166667 -0.166667 -0.333333    0.00462963  14 t-inv F
 -0.333333 -0.166667 -0.500000    0.00462963  14 t-inv F
 -0.333333 -0.500000 -0.166667    0.00462963  14 t-inv F
  0.166667 -0.166667  0.333333    0.00462963  14 t-inv F
  0.166667 -0.333333 -0.166667    0.00462963  14 t-inv F
 -0.166667  0.166667  0.333333    0.00462963  14 t-inv F
 -0.333333  0.166667 -0.166667    0.00462963  14 t-inv F
 -0.500000 -0.333333 -0.166667    0.00462963  14 t-inv F
 -0.166667 -0.333333 -0.500000    0.00462963  14 t-inv F
  0.333333  0.166667 -0.166667    0.00462963  14 t-inv F
 -0.166667  0.166667 -0.333333    0.00462963  14 t-inv F
  0.333333 -0.166667  0.166667    0.00462963  14 t-inv F
 -0.166667 -0.333333  0.166667    0.00462963  14 t-inv F
 -0.166667 -0.500000 -0.333333    0.00462963  14 t-inv F
  0.500000  0.166667  0.333333    0.00462963  14 t-inv F
  0.333333  0.500000  0.166667    0.00462963  14 t-inv F
  0.166667  0.333333  0.500000    0.00462963  14 t-inv F
  0.166667 -0.333333  0.333333    0.00462963  15 t-inv F
  0.333333  0.166667 -0.333333    0.00462963  15 t-inv F
 -0.333333 -0.166667 -0.666667    0.00462963  15 t-inv F
  0.333333  0.666667  0.500000    0.00462963  15 t-inv F
 -0.166667 -0.500000  0.166667    0.00462963  15 t-inv F
  0.166667 -0.500000 -0.166667    0.00462963  15 t-inv F
 -0.666667 -0.166667 -0.333333    0.00462963  15 t-inv F
  0.500000  0.666667  0.333333    0.00462963  15 t-inv F
  0.500000  0.333333  0.666667    0.00462963  15 t-inv F
  0.166667 -0.166667 -0.500000    0.00462963  15 t-inv F
 -0.666667 -0.333333 -0.166667    0.00462963  15 t-inv F
 -0.166667  0.166667 -0.500000    0.00462963  15 t-inv F
 -0.333333 -0.666667 -0.166667    0.00462963  15 t-inv F
  0.333333  0.500000  0.666667    0.00462963  15 t-inv F
  0.666667  0.500000  0.333333    0.00462963  15 t-inv F
 -0.500000  0.166667 -0.166667    0.00462963  15 t-inv F
 -0.166667 -0.666667 -0.333333    0.00462963  15 t-inv F
 -0.500000 -0.166667  0.166667    0.00462963  15 t-inv F
 -0.166667 -0.333333 -0.666667    0.00462963  15 t-inv F
  0.666667  0.333333  0.500000    0.00462963  15 t-inv F
 -0.333333  0.166667  0.333333    0.00462963  15 t-inv F
  0.333333 -0.333333  0.166667    0.00462963  15 t-inv F
  0.166667  0.333333 -0.333333    0.00462963  15 t-inv F
  0.166667 -0.333333  0.500000    0.00462963  16 t-inv F
  0.500000  0.166667 -0.333333    0.00462963  16 t-inv F
 -0.500000 -0.333333 -0.833333    0.00462963  16 t-inv F
  0.333333  0.833333  0.500000    0.00462963  16 t-inv F
 -0.166667 -0.500000  0.333333    0.00462963  16 t-inv F
  0.333333 -0.500000 -0.166667    0.00462963  16 t-inv F
  0.500000  0.833333  0.333333    0.00462963  16 t-inv F
  0.500000  0.333333  0.833333    0.00462963  16 t-inv F
 -0.833333 -0.500000 -0.333333    0.00462963  16 t-inv F
 -0.166667  0.333333 -0.500000    0.00462963  16 t-inv F
 -0.333333 -0.833333 -0.500000    0.00462963  16 t-inv F


--------------------------------------------------------------------------------------------------------




 Dimension of arrays:
   k-points           NKPTS =    116   k-points in BZ     NKDIM =    316   number of bands    NBANDS=     54
   number of dos      NEDOS =    301   number of ions     NIONS =      2
   non local maximal  LDIM  =      6   non local SUM 2l+1 LMDIM =     18
   total plane-waves  NPLWV =  13824
   max r-space proj   IRMAX =      1   max aug-charges    IRDMAX=  10603
   dimension x,y,z NGX =    24 NGY =   24 NGZ =   24
   dimension x,y,z NGXF=    48 NGYF=   48 NGZF=   48
   support grid    NGXF=    48 NGYF=   48 NGZF=   48
   ions per type =               2
   NGX,Y,Z   is equivalent  to a cutoff of  10.02, 10.02, 10.02 a.u.
   NGXF,Y,Z  is equivalent  to a cutoff of  20.03, 20.03, 20.03 a.u.

 SYSTEM =  unknown system                          
 POSCAR =  Ge                                      

 Startparameter for this run:
   NWRITE =      2    write-flag & timer
   PREC   = n         normal or accurate (medium, high low for compatibility)
   ISTART =      0    job   : 0-new  1-cont  2-samecut
   ICHARG =      2    charge: 1-file 2-atom 10-const
   ISPIN  =      2    spin polarized calculation?
   LNONCOLLINEAR =      F non collinear calculations
   LSORBIT =      F    spin-orbit coupling
   INIWAV =      1    electr: 0-lowe 1-rand  2-diag
   LASPH  =      F    aspherical Exc in radial PAW
   METAGGA=      F    non-selfconsistent MetaGGA calc.

 Electronic Relaxation 1
   ENCUT  =  450.0 eV  33.07 Ry    5.75 a.u.   6.89  6.89  6.89*2*pi/ulx,y,z
   ENINI  =  450.0     initial cutoff
   ENAUG  =  531.4 eV  augmentation charge cutoff
   NELM   =     60;   NELMIN=  2; NELMDL= -5     # of ELM steps 
   EDIFF  = 0.1E-03   stopping-criterion for ELM
   LREAL  =      F    real-space projection
   NLSPLINE    = F    spline interpolate recip. space projectors
   LCOMPAT=      F    compatible to vasp.4.4
   GGA_COMPAT  = T    GGA compatible to vasp.4.4-vasp.4.6
   LMAXPAW     = -100 max onsite density
   LMAXMIX     =    2 max onsite mixed and CHGCAR
   VOSKOWN=      0    Vosko Wilk Nusair interpolation
   ROPT   =    0.00000
 Ionic relaxation
   EDIFFG = 0.1E-02   stopping-criterion for IOM
   NSW    =      0    number of steps for IOM
   NBLOCK =      1;   KBLOCK =      1    inner block; outer block 
   IBRION =     -1    ionic relax: 0-MD 1-quasi-New 2-CG
   NFREE  =      0    steps in history (QN), initial steepest desc. (CG)
   ISIF   =      0    stress and relaxation
   IWAVPR =     10    prediction:  0-non 1-charg 2-wave 3-comb
   ISYM   =      3    0-nonsym 1-usesym 2-fastsym
   LCORR  =      T    Harris-Foulkes like correction to forces

   POTIM  = 0.5000    time-step for ionic-motion
   TEIN   =    0.0    initial temperature
   TEBEG  =    0.0;   TEEND  =   0.0 temperature during run
   SMASS  =  -3.00    Nose mass-parameter (am)
   estimated Nose-frequenzy (Omega)   =  0.10E-29 period in steps =****** mass=  -0.363E-27a.u.
   SCALEE = 1.0000    scale energy and forces
   NPACO  =    256;   APACO  = 16.0  distance and # of slots for P.C.
   PSTRESS=    0.0 pullay stress

  Mass of Ions in am
   POMASS =  72.61
  Ionic Valenz
   ZVAL   =  14.00
  Atomic Wigner-Seitz radii
   RWIGS  =  -1.00
  virtual crystal weights 
   VCA    =   1.00
   NELECT =      28.0000    total number of electrons
   NUPDOWN=      -1.0000    fix difference up-down

 DOS related values:
   EMIN   =  10.00;   EMAX   =-10.00  energy-range for DOS
   EFERMI =   0.00
   ISMEAR =     0;   SIGMA  =   0.05  broadening in eV -4-tet -1-fermi 0-gaus

 Electronic relaxation 2 (details)
   IALGO  =     53    algorithm
   LDIAG  =      T    sub-space diagonalisation (order eigenvalues)
   LSUBROT=      F    optimize rotation matrix (better conditioning)
   TURBO    =      0    0=normal 1=particle mesh
   IRESTART =      0    0=no restart 2=restart with 2 vectors
   NREBOOT  =      0    no. of reboots
   NMIN     =      0    reboot dimension
   EREF     =   0.00    reference energy to select bands
   IMIX   =      4    mixing-type and parameters
     AMIX     =   0.40;   BMIX     =  1.00
     AMIX_MAG =   1.60;   BMIX_MAG =  1.00
     AMIN     =   0.10
     WC   =   100.;   INIMIX=   1;  MIXPRE=   1;  MAXMIX= -45

 Intra band minimization:
   WEIMIN = 0.0000     energy-eigenvalue tresh-hold
   EBREAK =  0.46E-06  absolut break condition
   DEPER  =   0.30     relativ break condition  

   TIME   =   0.40     timestep for ELM

  volume/ion in A,a.u.               =      22.34       150.77
  Fermi-wavevector in a.u.,A,eV,Ry     =   1.400902  2.647321 26.701793  1.962526
  Thomas-Fermi vector in A             =   2.523816
 
 Write flags
   LWAVE        =      F    write WAVECAR
   LDOWNSAMPLE  =      F    k-point downsampling of WAVECAR
   LCHARG       =      F    write CHGCAR
   LVTOT        =      F    write LOCPOT, total local potential
   LVHAR        =      F    write LOCPOT, Hartree potential only
   LELF         =      F    write electronic localiz. function (ELF)
   LORBIT       =     11    0 simple, 1 ext, 2 COOP (PROOUT), +10 PAW based schemes


 Dipole corrections
   LMONO  =      F    monopole corrections only (constant potential shift)
   LDIPOL =      F    correct potential (dipole corrections)
   IDIPOL =      0    1-x, 2-y, 3-z, 4-all directions 
   EPSILON=  1.0000000 bulk dielectric constant

 Exchange correlation treatment:
   GGA     =    PE    GGA type
   LEXCH   =     8    internal setting for exchange type
   VOSKOWN=      0    Vosko Wilk Nusair interpolation
   EXXOEP  =     0    0=HF, 1=EXX-LHF (local Hartree Fock) 2=EXX OEP
   LHFCALC =     T    Hartree Fock is set to
   LSYMGRAD=     F    symmetrize gradient (conserves proper symmetry)
   PRECFOCK=normal    Normal, Fast or Accurate (Low or Medium for compatibility)
   LRHFCALC=     F    long range Hartree Fock
   LRSCOR  =     F    long range correlation only (use DFT for short range part)
   LTHOMAS =     F    Thomas Fermi screening in HF
   LMODELHF=     F    short range full HF, long range fraction AEXX
   ENCUT4O =  -1.0   cutoff for four orbital integrals eV
   LMAXFOCK=     4    L truncation for augmentation on plane wave grid
   LMAXFOCKAE=  -1    L truncation for all-electron charge restoration on plane wave grid
   NMAXFOCKAE=   1    number of basis functions for all-electron charge restoration
   LFOCKAEDFT=     F  apply the AE augmentation even for DFT
   NKREDX  =     1    reduce k-point grid by
   NKREDY  =     1    reduce k-point grid by
   NKREDZ  =     1    reduce k-point grid by
   SHIFTRED=     F    shift reduced grid of Gamma
   HFKIDENT=     F    idential grid for each k-point
   ODDONLY =     F    use only odd q-grid points
   EVENONLY=     F    use only even q-grid points
   HFALPHA =   -1.0000 decay constant for conv. correction
   MCALPHA =    0.0000 extent of test-charge in conv. correction in multipole expansion
   AEXX    =    0.2500 exact exchange contribution
   HFSCREEN=    0.2000 screening length (either q_TF or 0.3 A-1)
   HFSCREENC=   0.2000 screening length for correlation (either q_TF or 0.3 A-1)
   HFRCUT  =    0.0000 spherical cutoff for potential kernel
   ALDAX   =    0.7500 LDA exchange part
   AGGAX   =    0.7500 GGA exchange part
   ALDAC   =    1.0000 LDA correlation
   AGGAC   =    1.0000 GGA correlation
   ENCUTFOCK=  -1.0 apply spherical cutoff to Coloumb kernel
   NBANDSGWLOW=     1    first orbital included in HF term
   NBLOCK_FOCK=    64    blocking factor in FOCK_ACC
 Linear response parameters
   LEPSILON=     F    determine dielectric tensor
   LRPA    =     F    only Hartree local field effects (RPA)
   LNABLA  =     F    use nabla operator in PAW spheres
   LVEL    =     F    velocity operator in full k-point grid
   LINTERFAST=   F  fast interpolation
   KINTER  =     0    interpolate to denser k-point grid
   CSHIFT  =0.1000    complex shift for real part using Kramers Kronig
   OMEGAMAX=  -1.0    maximum frequency
   DEG_THRESHOLD= 0.2000000E-02 threshold for treating states as degnerate
   RTIME   =   -0.100 relaxation time in fs
  (WPLASMAI=    0.000 imaginary part of plasma frequency in eV, 0.658/RTIME)
   DFIELD  = 0.0000000 0.0000000 0.0000000 field for delta impulse in time
 
 Orbital magnetization related:
   ORBITALMAG=     F  switch on orbital magnetization
   LCHIMAG   =     F  perturbation theory with respect to B field
   DQ        =  0.001000  dq finite difference perturbation B field
   LLRAUG    =     F  two centre corrections for induced B field



--------------------------------------------------------------------------------------------------------


 Static calculation
 charge density and potential will be updated during run
 spin polarized calculation
 Conjugate gradient for all bands (Freysoldt, et al. PRB 79, 241103 (2009))
 perform sub-space diagonalisation
    before iterative eigenvector-optimisation
 modified Broyden-mixing scheme, WC =      100.0
 initial mixing is a Kerker type mixing with AMIX =  0.4000 and BMIX =      1.0000
 Hartree-type preconditioning will be used
 using additional bands           40
 reciprocal scheme for non local part
 use partial core corrections
 no Harris-corrections to forces 
 use gradient corrections 
 use of overlap-Matrix (Vanderbilt PP)
 Gauss-broadening in eV      SIGMA  =   0.05


--------------------------------------------------------------------------------------------------------


  energy-cutoff  :      450.00
  volume of cell :       44.68
      direct lattice vectors                 reciprocal lattice vectors
     0.000000000  2.816500000  2.816500000    -0.177525297  0.177525297  0.177525297
     2.816500000  0.000000000  2.816500000     0.177525297 -0.177525297  0.177525297
     2.816500000  2.816500000  0.000000000     0.177525297  0.177525297 -0.177525297

  length of vectors
     3.983132498  3.983132498  3.983132498     0.307482835  0.307482835  0.307482835


 
 k-points in units of 2pi/SCALE and weight: BayesOpt4dftu: Kpoints from user input a
   0.00000000  0.00000000  0.00000000       0.005
  -0.02958755  0.02958755  0.02958755       0.037
  -0.05917510  0.05917510  0.05917510       0.037
  -0.08876265  0.08876265  0.08876265       0.019
   0.00000000  0.00000000  0.05917510       0.028
  -0.02958755  0.02958755  0.08876265       0.111
  -0.05917510  0.05917510  0.11835020       0.111
   0.08876265 -0.08876265 -0.02958755       0.111
   0.05917510 -0.05917510  0.00000000       0.056
   0.00000000  0.00000000  0.11835020       0.028
  -0.02958755  0.02958755  0.14793775       0.111
   0.11835020 -0.11835020  0.00000000       0.056
   0.00000000  0.00000000  0.17752530       0.014
  -0.00000000  0.05917510  0.11835020       0.111
   0.14793775 -0.08876265 -0.02958755       0.111
   0.17752530 -0.11835020  0.00000000       0.056
   0.08876265  0.08876265  0.08876265       0.000
   0.08695117  0.08695117  0.08695117       0.000
   0.08513968  0.08513968  0.08513968       0.000
   0.08332820  0.08332820  0.08332820       0.000
   0.08151672  0.08151672  0.08151672       0.000
   0.07970524  0.07970524  0.07970524       0.000
   0.07789375  0.07789375  0.07789375       0.000
   0.07608227  0.07608227  0.07608227       0.000
   0.07427079  0.07427079  0.07427079       0.000
   0.07245931  0.07245931  0.07245931       0.000
   0.07064782  0.07064782  0.07064782       0.000
   0.06883634  0.06883634  0.06883634       0.000
   0.06702486  0.06702486  0.06702486       0.000
   0.06521337  0.06521337  0.06521337       0.000
   0.06340189  0.06340189  0.06340189       0.000
   0.06159041  0.06159041  0.06159041       0.000
   0.05977893  0.05977893  0.05977893       0.000
   0.05796744  0.05796744  0.05796744       0.000
   0.05615596  0.05615596  0.05615596       0.000
   0.05434448  0.05434448  0.05434448       0.000
   0.05253300  0.05253300  0.05253300       0.000
   0.05072151  0.05072151  0.05072151       0.000
   0.04891003  0.04891003  0.04891003       0.000
   0.04709855  0.04709855  0.04709855       0.000
   0.04528707  0.04528707  0.04528707       0.000
   0.04347558  0.04347558  0.04347558       0.000
   0.04166410  0.04166410  0.04166410       0.000
   0.03985262  0.03985262  0.03985262       0.000
   0.03804114  0.03804114  0.03804114       0.000
   0.03622965  0.03622965  0.03622965       0.000
   0.03441817  0.03441817  0.03441817       0.000
   0.03260669  0.03260669  0.03260669       0.000
   0.03079520  0.03079520  0.03079520       0.000
   0.02898372  0.02898372  0.02898372       0.000
   0.02717224  0.02717224  0.02717224       0.000
   0.02536076  0.02536076  0.02536076       0.000
   0.02354927  0.02354927  0.02354927       0.000
   0.02173779  0.02173779  0.02173779       0.000
   0.01992631  0.01992631  0.01992631       0.000
   0.01811483  0.01811483  0.01811483       0.000
   0.01630334  0.01630334  0.01630334       0.000
   0.01449186  0.01449186  0.01449186       0.000
   0.01268038  0.01268038  0.01268038       0.000
   0.01086890  0.01086890  0.01086890       0.000
   0.00905741  0.00905741  0.00905741       0.000
   0.00724593  0.00724593  0.00724593       0.000
   0.00543445  0.00543445  0.00543445       0.000
   0.00362297  0.00362297  0.00362297       0.000
   0.00181148  0.00181148  0.00181148       0.000
   0.00000000  0.00000000  0.00000000       0.000
   0.00000000  0.00000000  0.00000000       0.000
   0.00000000  0.00362297  0.00000000       0.000
   0.00000000  0.00724593  0.00000000       0.000
   0.00000000  0.01086890  0.00000000       0.000
   0.00000000  0.01449186  0.00000000       0.000
   0.00000000  0.01811483  0.00000000       0.000
   0.00000000  0.02173779  0.00000000       0.000
   0.00000000  0.02536076  0.00000000       0.000
   0.00000000  0.02898372  0.00000000       0.000
   0.00000000  0.03260669  0.00000000       0.000
   0.00000000  0.03622965  0.00000000       0.000
   0.00000000  0.03985262  0.00000000       0.000
   0.00000000  0.04347558  0.00000000       0.000
   0.00000000  0.04709855  0.00000000       0.000
   0.00000000  0.05072151  0.00000000       0.000
   0.00000000  0.05434448  0.00000000       0.000
   0.00000000  0.05796744  0.00000000       0.000
   0.00000000  0.06159041  0.00000000       0.000
   0.00000000  0.06521337  0.00000000       0.000
   0.00000000  0.06883634  0.00000000       0.000
   0.00000000  0.07245931  0.00000000       0.000
   0.00000000  0.07608227  0.00000000       0.000
   0.00000000  0.07970524  0.00000000       0.000
   0.00000000  0.08332820  0.00000000       0.000
   0.00000000  0.08695117  0.00000000       0.000
   0.00000000  0.09057413  0.00000000       0.000
   0.00000000  0.09419710  0.00000000       0.000
   0.00000000  0.09782006  0.00000000       0.000
   0.00000000  0.10144303  0.00000000       0.000
   0.00000000  0.10506599  0.00000000       0.000
   0.00000000  0.10868896  0.00000000       0.000
   0.00000000  0.11231192  0.00000000       0.000
   0.00000000  0.11593489  0.00000000       0.000
   0.00000000  0.11955785  0.00000000       0.000
   0.00000000  0.12318082  0.00000000       0.000
   0.00000000  0.12680378  0.00000000       0.000
   0.00000000  0.13042675  0.00000000       0.000
   0.00000000  0.13404971  0.00000000       0.000
   0.00000000  0.13767268  0.00000000       0.000
   0.00000000  0.14129564  0.00000000       0.000
   0.00000000  0.14491861  0.00000000       0.000
   0.00000000  0.14854158  0.00000000       0.000
   0.00000000  0.15216454  0.00000000       0.000
   0.00000000  0.15578751  0.00000000       0.000
   0.00000000  0.15941047  0.00000000       0.000
   0.00000000  0.16303344  0.00000000       0.000
   0.00000000  0.16665640  0.00000000       0.000
   0.00000000  0.17027937  0.00000000       0.000
   0.00000000  0.17390233  0.00000000       0.000
   0.00000000  0.17752530  0.00000000       0.000
 
 k-points in reciprocal lattice and weights: BayesOpt4dftu: Kpoints from user input a
   0.00000000  0.00000000  0.00000000       0.005
   0.16666667  0.00000000  0.00000000       0.037
   0.33333333  0.00000000  0.00000000       0.037
   0.50000000  0.00000000  0.00000000       0.019
   0.16666667  0.16666667  0.00000000       0.028
   0.33333333  0.16666667  0.00000000       0.111
   0.50000000  0.16666667  0.00000000       0.111
  -0.33333333  0.16666667  0.00000000       0.111
  -0.16666667  0.16666667  0.00000000       0.056
   0.33333333  0.33333333  0.00000000       0.028
   0.50000000  0.33333333  0.00000000       0.111
  -0.33333333  0.33333333  0.00000000       0.056
   0.50000000  0.50000000  0.00000000       0.014
   0.50000000  0.33333333  0.16666667       0.111
  -0.33333333  0.33333333  0.16666667       0.111
  -0.33333333  0.50000000  0.16666667       0.056
   0.50000000  0.50000000  0.50000000       0.000
   0.48979592  0.48979592  0.48979592       0.000
   0.47959184  0.47959184  0.47959184       0.000
   0.46938776  0.46938776  0.46938776       0.000
   0.45918367  0.45918367  0.45918367       0.000
   0.44897959  0.44897959  0.44897959       0.000
   0.43877551  0.43877551  0.43877551       0.000
   0.42857143  0.42857143  0.42857143       0.000
   0.41836735  0.41836735  0.41836735       0.000
   0.40816327  0.40816327  0.40816327       0.000
   0.39795918  0.39795918  0.39795918       0.000
   0.38775510  0.38775510  0.38775510       0.000
   0.37755102  0.37755102  0.37755102       0.000
   0.36734694  0.36734694  0.36734694       0.000
   0.35714286  0.35714286  0.35714286       0.000
   0.34693878  0.34693878  0.34693878       0.000
   0.33673469  0.33673469  0.33673469       0.000
   0.32653061  0.32653061  0.32653061       0.000
   0.31632653  0.31632653  0.31632653       0.000
   0.30612245  0.30612245  0.30612245       0.000
   0.29591837  0.29591837  0.29591837       0.000
   0.28571429  0.28571429  0.28571429       0.000
   0.27551020  0.27551020  0.27551020       0.000
   0.26530612  0.26530612  0.26530612       0.000
   0.25510204  0.25510204  0.25510204       0.000
   0.24489796  0.24489796  0.24489796       0.000
   0.23469388  0.23469388  0.23469388       0.000
   0.22448980  0.22448980  0.22448980       0.000
   0.21428571  0.21428571  0.21428571       0.000
   0.20408163  0.20408163  0.20408163       0.000
   0.19387755  0.19387755  0.19387755       0.000
   0.18367347  0.18367347  0.18367347       0.000
   0.17346939  0.17346939  0.17346939       0.000
   0.16326531  0.16326531  0.16326531       0.000
   0.15306122  0.15306122  0.15306122       0.000
   0.14285714  0.14285714  0.14285714       0.000
   0.13265306  0.13265306  0.13265306       0.000
   0.12244898  0.12244898  0.12244898       0.000
   0.11224490  0.11224490  0.11224490       0.000
   0.10204082  0.10204082  0.10204082       0.000
   0.09183673  0.09183673  0.09183673       0.000
   0.08163265  0.08163265  0.08163265       0.000
   0.07142857  0.07142857  0.07142857       0.000
   0.06122449  0.06122449  0.06122449       0.000
   0.05102041  0.05102041  0.05102041       0.000
   0.04081633  0.04081633  0.04081633       0.000
   0.03061224  0.03061224  0.03061224       0.000
   0.02040816  0.02040816  0.02040816       0.000
   0.01020408  0.01020408  0.01020408       0.000
   0.00000000  0.00000000  0.00000000       0.000
   0.00000000  0.00000000  0.00000000       0.000
   0.01020408  0.00000000  0.01020408       0.000
   0.02040816  0.00000000  0.02040816       0.000
   0.03061224  0.00000000  0.03061224       0.000
   0.04081633  0.00000000  0.04081633       0.000
   0.05102041  0.00000000  0.05102041       0.000
   0.06122449  0.00000000  0.06122449       0.000
   0.07142857  0.00000000  0.07142857       0.000
   0.08163265  0.00000000  0.08163265       0.000
   0.09183673  0.00000000  0.09183673       0.000
   0.10204082  0.00000000  0.10204082       0.000
   0.11224490  0.00000000  0.11224490       0.000
   0.12244898  0.00000000  0.12244898       0.000
   0.13265306  0.00000000  0.13265306       0.000
   0.14285714  0.00000000  0.14285714       0.000
   0.15306122  0.00000000  0.15306122       0.000
   0.16326531  0.00000000  0.16326531       0.000
   0.17346939  0.00000000  0.17346939       0.000
   0.18367347  0.00000000  0.18367347       0.000
   0.19387755  0.00000000  0.19387755       0.000
   0.20408163  0.00000000  0.20408163       0.000
   0.21428571  0.00000000  0.21428571       0.000
   0.22448980  0.00000000  0.22448980       0.000
   0.23469388  0.00000000  0.23469388       0.000
   0.24489796  0.00000000  0.24489796       0.000
   0.25510204  0.00000000  0.25510204       0.000
   0.26530612  0.00000000  0.26530612       0.000
   0.27551020  0.00000000  0.27551020       0.000
   0.28571429  0.00000000  0.28571429       0.000
   0.29591837  0.00000000  0.29591837       0.000
   0.30612245  0.00000000  0.30612245       0.000
   0.31632653  0.00000000  0.31632653       0.000
   0.32653061  0.00000000  0.32653061       0.000
   0.33673469  0.00000000  0.33673469       0.000
   0.34693878  0.00000000  0.34693878       0.000
   0.35714286  0.00000000  0.35714286       0.000
   0.36734694  0.00000000  0.36734694       0.000
   0.37755102  0.00000000  0.37755102       0.000
   0.38775510  0.00000000  0.38775510       0.000
   0.39795918  0.00000000  0.39795918       0.000
   0.40816327  0.00000000  0.40816327       0.000
   0.41836735  0.00000000  0.41836735       0.000
   0.42857143  0.00000000  0.42857143       0.000
   0.43877551  0.00000000  0.43877551       0.000
   0.44897959  0.00000000  0.44897959       0.000
   0.45918367  0.00000000  0.45918367       0.000
   0.46938776  0.00000000  0.46938776       0.000
   0.47959184  0.00000000  0.47959184       0.000
   0.48979592  0.00000000  0.48979592       0.000
   0.50000000  0.00000000  0.50000000       0.000
 
 position of ions in fractional coordinates (direct lattice) 
   0.00000000  0.00000000  0.00000000
   0.25000000  0.25000000  0.25000000
 
 position of ions in cartesian coordinates  (Angst):
   0.00000000  0.00000000  0.00000000
   1.40825000  1.40825000  1.40825000
 


--------------------------------------------------------------------------------------------------------


 k-point  1 :   0.0000 0.0000 0.0000  plane waves:     941
 k-point  2 :   0.1667 0.0000 0.0000  plane waves:     956
 k-point  3 :   0.3333 0.0000 0.0000  plane waves:     968
 k-point  4 :   0.5000 0.0000 0.0000  plane waves:     978
 k-point  5 :   0.1667 0.1667 0.0000  plane waves:     966
 k-point  6 :   0.3333 0.1667 0.0000  plane waves:     965
 k-point  7 :   0.5000 0.1667 0.0000  plane waves:     972
 k-point  8 :  -0.3333 0.1667 0.0000  plane waves:     969
 k-point  9 :  -0.1667 0.1667 0.0000  plane waves:     961
 k-point 10 :   0.3333 0.3333 0.0000  plane waves:     962
 k-point 11 :   0.5000 0.3333 0.0000  plane waves:     975
 k-point 12 :  -0.3333 0.3333 0.0000  plane waves:     981
 k-point 13 :   0.5000 0.5000 0.0000  plane waves:     982
 k-point 14 :   0.5000 0.3333 0.1667  plane waves:     974
 k-point 15 :  -0.3333 0.3333 0.1667  plane waves:     960
 k-point 16 :  -0.3333 0.5000 0.1667  plane waves:     978
 k-point 17 :   0.5000 0.5000 0.5000  plane waves:     978
 k-point 18 :   0.4898 0.4898 0.4898  plane waves:     969
 k-point 19 :   0.4796 0.4796 0.4796  plane waves:     969
 k-point 20 :   0.4694 0.4694 0.4694  plane waves:     969
 k-point 21 :   0.4592 0.4592 0.4592  plane waves:     969
 k-point 22 :   0.4490 0.4490 0.4490  plane waves:     969
 k-point 23 :   0.4388 0.4388 0.4388  plane waves:     969
 k-point 24 :   0.4286 0.4286 0.4286  plane waves:     969
 k-point 25 :   0.4184 0.4184 0.4184  plane waves:     963
 k-point 26 :   0.4082 0.4082 0.4082  plane waves:     963
 k-point 27 :   0.3980 0.3980 0.3980  plane waves:     966
 k-point 28 :   0.3878 0.3878 0.3878  plane waves:     954
 k-point 29 :   0.3776 0.3776 0.3776  plane waves:     960
 k-point 30 :   0.3673 0.3673 0.3673  plane waves:     965
 k-point 31 :   0.3571 0.3571 0.3571  plane waves:     962
 k-point 32 :   0.3469 0.3469 0.3469  plane waves:     968
 k-point 33 :   0.3367 0.3367 0.3367  plane waves:     968
 k-point 34 :   0.3265 0.3265 0.3265  plane waves:     968
 k-point 35 :   0.3163 0.3163 0.3163  plane waves:     968
 k-point 36 :   0.3061 0.3061 0.3061  plane waves:     962
 k-point 37 :   0.2959 0.2959 0.2959  plane waves:     962
 k-point 38 :   0.2857 0.2857 0.2857  plane waves:     956
 k-point 39 :   0.2755 0.2755 0.2755  plane waves:     956
 k-point 40 :   0.2653 0.2653 0.2653  plane waves:     962
 k-point 41 :   0.2551 0.2551 0.2551  plane waves:     959
 k-point 42 :   0.2449 0.2449 0.2449  plane waves:     959
 k-point 43 :   0.2347 0.2347 0.2347  plane waves:     953
 k-point 44 :   0.2245 0.2245 0.2245  plane waves:     953
 k-point 45 :   0.2143 0.2143 0.2143  plane waves:     953
 k-point 46 :   0.2041 0.2041 0.2041  plane waves:     956
 k-point 47 :   0.1939 0.1939 0.1939  plane waves:     956
 k-point 48 :   0.1837 0.1837 0.1837  plane waves:     950
 k-point 49 :   0.1735 0.1735 0.1735  plane waves:     956
 k-point 50 :   0.1633 0.1633 0.1633  plane waves:     956
 k-point 51 :   0.1531 0.1531 0.1531  plane waves:     953
 k-point 52 :   0.1429 0.1429 0.1429  plane waves:     959
 k-point 53 :   0.1327 0.1327 0.1327  plane waves:     953
 k-point 54 :   0.1224 0.1224 0.1224  plane waves:     953
 k-point 55 :   0.1122 0.1122 0.1122  plane waves:     950
 k-point 56 :   0.1020 0.1020 0.1020  plane waves:     950
 k-point 57 :   0.0918 0.0918 0.0918  plane waves:     950
 k-point 58 :   0.0816 0.0816 0.0816  plane waves:     950
 k-point 59 :   0.0714 0.0714 0.0714  plane waves:     950
 k-point 60 :   0.0612 0.0612 0.0612  plane waves:     944
 k-point 61 :   0.0510 0.0510 0.0510  plane waves:     944
 k-point 62 :   0.0408 0.0408 0.0408  plane waves:     944
 k-point 63 :   0.0306 0.0306 0.0306  plane waves:     941
 k-point 64 :   0.0204 0.0204 0.0204  plane waves:     941
 k-point 65 :   0.0102 0.0102 0.0102  plane waves:     941
 k-point 66 :   0.0000 0.0000 0.0000  plane waves:     941
 k-point 67 :   0.0000 0.0000 0.0000  plane waves:     941
 k-point 68 :   0.0102 0.0000 0.0102  plane waves:     941
 k-point 69 :   0.0204 0.0000 0.0204  plane waves:     941
 k-point 70 :   0.0306 0.0000 0.0306  plane waves:     941
 k-point 71 :   0.0408 0.0000 0.0408  plane waves:     945
 k-point 72 :   0.0510 0.0000 0.0510  plane waves:     945
 k-point 73 :   0.0612 0.0000 0.0612  plane waves:     945
 k-point 74 :   0.0714 0.0000 0.0714  plane waves:     953
 k-point 75 :   0.0816 0.0000 0.0816  plane waves:     953
 k-point 76 :   0.0918 0.0000 0.0918  plane waves:     953
 k-point 77 :   0.1020 0.0000 0.1020  plane waves:     953
 k-point 78 :   0.1122 0.0000 0.1122  plane waves:     945
 k-point 79 :   0.1224 0.0000 0.1224  plane waves:     949
 k-point 80 :   0.1327 0.0000 0.1327  plane waves:     950
 k-point 81 :   0.1429 0.0000 0.1429  plane waves:     950
 k-point 82 :   0.1531 0.0000 0.1531  plane waves:     962
 k-point 83 :   0.1633 0.0000 0.1633  plane waves:     966
 k-point 84 :   0.1735 0.0000 0.1735  plane waves:     966
 k-point 85 :   0.1837 0.0000 0.1837  plane waves:     966
 k-point 86 :   0.1939 0.0000 0.1939  plane waves:     966
 k-point 87 :   0.2041 0.0000 0.2041  plane waves:     966
 k-point 88 :   0.2143 0.0000 0.2143  plane waves:     974
 k-point 89 :   0.2245 0.0000 0.2245  plane waves:     978
 k-point 90 :   0.2347 0.0000 0.2347  plane waves:     982
 k-point 91 :   0.2449 0.0000 0.2449  plane waves:     982
 k-point 92 :   0.2551 0.0000 0.2551  plane waves:     982
 k-point 93 :   0.2653 0.0000 0.2653  plane waves:     982
 k-point 94 :   0.2755 0.0000 0.2755  plane waves:     982
 k-point 95 :   0.2857 0.0000 0.2857  plane waves:     974
 k-point 96 :   0.2959 0.0000 0.2959  plane waves:     982
 k-point 97 :   0.3061 0.0000 0.3061  plane waves:     974
 k-point 98 :   0.3163 0.0000 0.3163  plane waves:     974
 k-point 99 :   0.3265 0.0000 0.3265  plane waves:     970
 k-point ** :   0.3367 0.0000 0.3367  plane waves:     962
 k-point ** :   0.3469 0.0000 0.3469  plane waves:     966
 k-point ** :   0.3571 0.0000 0.3571  plane waves:     974
 k-point ** :   0.3673 0.0000 0.3673  plane waves:     974
 k-point ** :   0.3776 0.0000 0.3776  plane waves:     974
 k-point ** :   0.3878 0.0000 0.3878  plane waves:     974
 k-point ** :   0.3980 0.0000 0.3980  plane waves:     978
 k-point ** :   0.4082 0.0000 0.4082  plane waves:     978
 k-point ** :   0.4184 0.0000 0.4184  plane waves:     978
 k-point ** :   0.4286 0.0000 0.4286  plane waves:     978
 k-point ** :   0.4388 0.0000 0.4388  plane waves:     978
 k-point ** :   0.4490 0.0000 0.4490  plane waves:     974
 k-point ** :   0.4592 0.0000 0.4592  plane waves:     974
 k-point ** :   0.4694 0.0000 0.4694  plane waves:     982
 k-point ** :   0.4796 0.0000 0.4796  plane waves:     982
 k-point ** :   0.4898 0.0000 0.4898  plane waves:     982
 k-point ** :   0.5000 0.0000 0.5000  plane waves:     982

 maximum and minimum number of plane-waves per node :       341      306

 maximum number of plane-waves:       982
 maximum index in each direction: 
   IXMAX=    7   IYMAX=    6   IZMAX=    6
   IXMIN=   -7   IYMIN=   -7   IZMIN=   -7


 parallel 3D FFT for wavefunctions:
    minimum data exchange during FFTs selected (reduces bandwidth)
 parallel 3D FFT for charge:
    minimum data exchange during FFTs selected (reduces bandwidth)

 
 Radii for the augmentation spheres in the non-local exchange
 for species   1 augmentation radius   1.239 (default was   0.991)
       energy cutoff for augmentation   1800.0

 real space projection operators:
  total allocation   :        973.05 KBytes
  max/ min on nodes  :        324.61        323.83

 Maximum index for augmentation-charges in exchange          829
  SETUP_FOCK is finished

 total amount of memory used by VASP MPI-rank0   112566. kBytes
=======================================================================

   base      :      30000. kBytes
   nonl-proj :       5874. kBytes
   fftplans  :        746. kBytes
   grid      :       1402. kBytes
   one-center:         31. kBytes
   HF        :         64. kBytes
   nonlr-proj:        484. kBytes
   wavefun   :      73965. kBytes
 
     INWAV:  cpu time    0.0001: real time    0.0001
 Broyden mixing: mesh for mixing (old mesh)
   NGX = 13   NGY = 13   NGZ = 13
  (NGX  = 48   NGY  = 48   NGZ  = 48)
  gives a total of   2197 points

 initial charge density was supplied:
 charge density of overlapping atoms calculated
 number of electron      28.0000000 magnetization       0.0000000
 keeping initial charge density in first step


--------------------------------------------------------------------------------------------------------


 Maximum index for augmentation-charges         1486 (set IRDMAX)


--------------------------------------------------------------------------------------------------------


 First call to EWALD:  gamma=   0.499
 Maximum number of real-space cells 3x 3x 3
 Maximum number of reciprocal cells 3x 3x 3

    FEWALD:  cpu time    0.0085: real time    0.0087


--------------------------------------- Iteration      1(   1)  ---------------------------------------


    POTLOK:  cpu time    0.0927: real time    0.2103
    SETDIJ:  cpu time    0.2018: real time    0.2030
    TRIAL :  cpu time    1.0160: real time    1.0588
    CORREC:  cpu time    0.0018: real time    0.0018
    --------------------------------------------
      LOOP:  cpu time    1.3577: real time    1.5205

 eigenvalue-minimisations  : 42912
 total energy-change (2. order) : 0.3178078E+03  (-0.1137739E+04)
 number of electron      28.0000000 magnetization       0.0000000
 augmentation part       28.0000000 magnetization       0.0000000

 Free energy of the ion-electron system (eV)
  ---------------------------------------------------
  alpha Z        PSCENC =       131.13230232
  Ewald energy   TEWEN  =     -2699.00129049
  -Hartree energ DENC   =     -1507.28522658
  -exchange      EXHF   =         0.00000000
  -V(xc)+E(xc)   XCENC  =       111.42254344
  PAW double counting   =      3707.07107620    -4533.30323240
  entropy T*S    EENTRO =        -0.00157133
  eigenvalues    EBANDS =       -81.35879463
  atomic energy  EATOM  =      5189.13196876
  ---------------------------------------------------
  free energy    TOTEN  =       317.80777529 eV

  energy without entropy =      317.80934662  energy(sigma->0) =      317.80856096
  exchange ACFDT corr.  =         0.00000000  see jH, gK, PRB 81, 115126


--------------------------------------------------------------------------------------------------------




--------------------------------------- Iteration      1(   2)  ---------------------------------------


    TRIAL :  cpu time    0.7928: real time    0.8007
    CORREC:  cpu time    0.0018: real time    0.0018
    --------------------------------------------
      LOOP:  cpu time    0.7950: real time    0.8036

 eigenvalue-minimisations  : 34272
 total energy-change (2. order) :-0.1909599E+03  (-0.1738478E+03)
 number of electron      28.0000000 magnetization       0.0000000
 augmentation part       28.0000000 magnetization       0.0000000

 Free energy of the ion-electron system (eV)
  ---------------------------------------------------
  alpha Z        PSCENC =       131.13230232
  Ewald energy   TEWEN  =     -2699.00129049
  -Hartree energ DENC   =     -1507.28522658
  -exchange      EXHF   =         0.00000000
  -V(xc)+E(xc)   XCENC  =       111.42254344
  PAW double counting   =      3707.07107620    -4533.30323240
  entropy T*S    EENTRO =        -0.00054677
  eigenvalues    EBANDS =      -272.31969816
  atomic energy  EATOM  =      5189.13196876
  ---------------------------------------------------
  free energy    TOTEN  =       126.84789633 eV

  energy without entropy =      126.84844310  energy(sigma->0) =      126.84816971
  exchange ACFDT corr.  =         0.00000000  see jH, gK, PRB 81, 115126


--------------------------------------------------------------------------------------------------------




--------------------------------------- Iteration      1(   3)  ---------------------------------------


    TRIAL :  cpu time    0.8568: real time    0.8721
    CORREC:  cpu time    0.0020: real time    0.0021
    --------------------------------------------
      LOOP:  cpu time    0.8602: real time    0.8756

 eigenvalue-minimisations  : 37818
 total energy-change (2. order) :-0.5317328E+02  (-0.5149494E+02)
 number of electron      28.0000000 magnetization       0.0000000
 augmentation part       28.0000000 magnetization       0.0000000

 Free energy of the ion-electron system (eV)
  ---------------------------------------------------
  alpha Z        PSCENC =       131.13230232
  Ewald energy   TEWEN  =     -2699.00129049
  -Hartree energ DENC   =     -1507.28522658
  -exchange      EXHF   =         0.00000000
  -V(xc)+E(xc)   XCENC  =       111.42254344
  PAW double counting   =      3707.07107620    -4533.30323240
  entropy T*S    EENTRO =        -0.00028739
  eigenvalues    EBANDS =      -325.49323821
  atomic energy  EATOM  =      5189.13196876
  ---------------------------------------------------
  free energy    TOTEN  =        73.67461565 eV

  energy without entropy =       73.67490304  energy(sigma->0) =       73.67475935
  exchange ACFDT corr.  =         0.00000000  see jH, gK, PRB 81, 115126


--------------------------------------------------------------------------------------------------------




--------------------------------------- Iteration      1(   4)  ---------------------------------------


    TRIAL :  cpu time    0.8468: real time    0.8924
    CORREC:  cpu time    0.0018: real time    0.0019
    --------------------------------------------
      LOOP:  cpu time    0.8627: real time    0.9088

 eigenvalue-minimisations  : 37737
 total energy-change (2. order) :-0.7454935E+01  (-0.7358633E+01)
 number of electron      28.0000000 magnetization       0.0000000
 augmentation part       28.0000000 magnetization       0.0000000

 Free energy of the ion-electron system (eV)
  ---------------------------------------------------
  alpha Z        PSCENC =       131.13230232
  Ewald energy   TEWEN  =     -2699.00129049
  -Hartree energ DENC   =     -1507.28522658
  -exchange      EXHF   =         0.00000000
  -V(xc)+E(xc)   XCENC  =       111.42254344
  PAW double counting   =      3707.07107620    -4533.30323240
  entropy T*S    EENTRO =        -0.00000663
  eigenvalues    EBANDS =      -332.94845424
  atomic energy  EATOM  =      5189.13196876
  ---------------------------------------------------
  free energy    TOTEN  =        66.21968038 eV

  energy without entropy =       66.21968701  energy(sigma->0) =       66.21968370
  exchange ACFDT corr.  =         0.00000000  see jH, gK, PRB 81, 115126


--------------------------------------------------------------------------------------------------------




--------------------------------------- Iteration      1(   5)  ---------------------------------------


    TRIAL :  cpu time    0.9351: real time    0.9780
    CORREC:  cpu time    0.0014: real time    0.0014
    CHARGE:  cpu time    0.0422: real time    0.0594
    --------------------------------------------
      LOOP:  cpu time    0.9794: real time    1.0395

 eigenvalue-minimisations  : 42858
 total energy-change (2. order) :-0.7288894E+00  (-0.7271780E+00)
 number of electron      27.9999915 magnetization      -0.0000007
 augmentation part       16.9260116 magnetization       0.0010273

 Free energy of the ion-electron system (eV)
  ---------------------------------------------------
  alpha Z        PSCENC =       131.13230232
  Ewald energy   TEWEN  =     -2699.00129049
  -Hartree energ DENC   =     -1507.28522658
  -exchange      EXHF   =         0.00000000
  -V(xc)+E(xc)   XCENC  =       111.42254344
  PAW double counting   =      3707.07107620    -4533.30323240
  entropy T*S    EENTRO =        -0.00000237
  eigenvalues    EBANDS =      -333.67734788
  atomic energy  EATOM  =      5189.13196876
  ---------------------------------------------------
  free energy    TOTEN  =        65.49079100 eV

  energy without entropy =       65.49079337  energy(sigma->0) =       65.49079218
  exchange ACFDT corr.  =         0.00000000  see jH, gK, PRB 81, 115126


--------------------------------------------------------------------------------------------------------




--------------------------------------- Iteration      1(   6)  ---------------------------------------


    POTLOK:  cpu time    0.0414: real time    0.0417
    SETDIJ:  cpu time    0.2252: real time    0.2264
    TRIAL :  cpu time  518.5483: real time  527.4103
    CORREC:  cpu time    0.0012: real time    0.0013
    CHARGE:  cpu time    0.0346: real time    0.0350
    --------------------------------------------
      LOOP:  cpu time  518.8511: real time  527.7149

 eigenvalue-minimisations  :     0
 total energy-change (2. order) :-0.7587934E+02  (-0.2203626E+00)
 number of electron      27.9999915 magnetization      -0.0000000
 augmentation part       16.9541521 magnetization       0.0006442

 Free energy of the ion-electron system (eV)
  ---------------------------------------------------
  alpha Z        PSCENC =       131.13230232
  Ewald energy   TEWEN  =     -2699.00129049
  -Hartree energ DENC   =     -1490.43880716
  -exchange      EXHF   =        76.06565308
  -V(xc)+E(xc)   XCENC  =       110.73517156
  PAW double counting   =      4914.36936454    -5740.70285596
  entropy T*S    EENTRO =        -0.00000001
  eigenvalues    EBANDS =      -501.68004844
  atomic energy  EATOM  =      5189.13196876
  ---------------------------------------------------
  free energy    TOTEN  =       -10.38854417 eV

  energy without entropy =      -10.38854417  energy(sigma->0) =      -10.38854417
  exchange ACFDT corr.  =        -0.00000030  see jH, gK, PRB 81, 115126


--------------------------------------------------------------------------------------------------------




--------------------------------------- Iteration      1(   7)  ---------------------------------------


    POTLOK:  cpu time    0.0400: real time    0.0404
    SETDIJ:  cpu time    0.2011: real time    0.2022
    TRIAL :  cpu time  519.7334: real time  527.9776
    CORREC:  cpu time    0.0009: real time    0.0009
    CHARGE:  cpu time    0.0339: real time    0.0343
    --------------------------------------------
      LOOP:  cpu time  520.0104: real time  528.2614

 eigenvalue-minimisations  :     0
 total energy-change (2. order) :-0.1596130E+00  (-0.1082870E+00)
 number of electron      27.9999915 magnetization      -0.0000000
 augmentation part       16.9682867 magnetization       0.0002840

 Free energy of the ion-electron system (eV)
  ---------------------------------------------------
  alpha Z        PSCENC =       131.13230232
  Ewald energy   TEWEN  =     -2699.00129049
  -Hartree energ DENC   =     -1497.32471999
  -exchange      EXHF   =        76.19691506
  -V(xc)+E(xc)   XCENC  =       110.93808571
  PAW double counting   =      4853.88343824    -5686.36831035
  entropy T*S    EENTRO =        -0.00000000
  eigenvalues    EBANDS =      -489.13654640
  atomic energy  EATOM  =      5189.13196876
  ---------------------------------------------------
  free energy    TOTEN  =       -10.54815715 eV

  energy without entropy =      -10.54815715  energy(sigma->0) =      -10.54815715
  exchange ACFDT corr.  =        -0.00480401  see jH, gK, PRB 81, 115126


--------------------------------------------------------------------------------------------------------




--------------------------------------- Iteration      1(   8)  ---------------------------------------


    POTLOK:  cpu time    0.0400: real time    0.0404
    SETDIJ:  cpu time    0.2021: real time    0.2032
    TRIAL :  cpu time  519.7090: real time  527.9715
    CORREC:  cpu time    0.0008: real time    0.0008
    CHARGE:  cpu time    0.0329: real time    0.0331
    --------------------------------------------
      LOOP:  cpu time  519.9861: real time  528.2560

 eigenvalue-minimisations  :     0
 total energy-change (2. order) :-0.7649648E-01  (-0.4952159E-01)
 number of electron      27.9999915 magnetization      -0.0000000
 augmentation part       16.9686636 magnetization       0.0000891

 Free energy of the ion-electron system (eV)
  ---------------------------------------------------
  alpha Z        PSCENC =       131.13230232
  Ewald energy   TEWEN  =     -2699.00129049
  -Hartree energ DENC   =     -1502.89339163
  -exchange      EXHF   =        76.30572496
  -V(xc)+E(xc)   XCENC  =       111.09427792
  PAW double counting   =      4810.27295056    -5646.60180995
  entropy T*S    EENTRO =        -0.00000000
  eigenvalues    EBANDS =      -480.06538607
  atomic energy  EATOM  =      5189.13196876
  ---------------------------------------------------
  free energy    TOTEN  =       -10.62465363 eV

  energy without entropy =      -10.62465363  energy(sigma->0) =      -10.62465363
  exchange ACFDT corr.  =        -0.00317735  see jH, gK, PRB 81, 115126


--------------------------------------------------------------------------------------------------------




--------------------------------------- Iteration      1(   9)  ---------------------------------------


    POTLOK:  cpu time    0.0402: real time    0.0405
    SETDIJ:  cpu time    0.2018: real time    0.2027
    TRIAL :  cpu time  519.2777: real time  527.6536
    CORREC:  cpu time    0.0009: real time    0.0009
    CHARGE:  cpu time    0.0329: real time    0.0332
    --------------------------------------------
      LOOP:  cpu time  519.5551: real time  527.9369

 eigenvalue-minimisations  :     0
 total energy-change (2. order) :-0.3559880E-01  (-0.1814970E-01)
 number of electron      27.9999915 magnetization      -0.0000000
 augmentation part       16.9693533 magnetization       0.0000439

 Free energy of the ion-electron system (eV)
  ---------------------------------------------------
[...]
     12      -4.4509      1.00000
     13       1.4066      1.00000
     14       1.4066      1.00000
     15       5.9553      0.00000
     16       6.2213      0.00000
     17      15.5891      0.00000
     18      15.5891      0.00000
     19      17.2812      0.00000
     20      18.2802      0.00000
     21      18.9256      0.00000
     22      18.9257      0.00000
     23      19.2146      0.00000
     24      20.3190      0.00000
     25      24.2978      0.00000
     26      24.2978      0.00000
     27      24.3482      0.00000
     28      25.0372      0.00000
     29      26.3773      0.00000
     30      26.3773      0.00000
     31      26.5679      0.00000
     32      27.1259      0.00000
     33      35.4730      0.00000
     34      35.4730      0.00000
     35      35.8746      0.00000
     36      36.9711      0.00000
     37      38.2031      0.00000
     38      38.4094      0.00000
     39      38.4094      0.00000
     40      40.6153      0.00000
     41      41.3617      0.00000
     42      41.6181      0.00000
     43      42.4425      0.00000
     44      42.4429      0.00000
     45      43.9159      0.00000
     46      43.9537      0.00000
     47      45.4152      0.00000
     48      45.4243      0.00000
     49      46.4538      0.00000
     50      46.4709      0.00000
     51      52.8556      0.00000
     52      53.5544      0.00000
     53      54.9873      0.00000
     54      56.2047      0.00000

 k-point   114 :       0.4796    0.0000    0.4796
  band No.  band energies     occupation 
      1     -23.2086      1.00000
      2     -23.2086      1.00000
      3     -23.1270      1.00000
      4     -23.1115      1.00000
      5     -23.0232      1.00000
      6     -23.0083      1.00000
      7     -22.9639      1.00000
      8     -22.9480      1.00000
      9     -22.8629      1.00000
     10     -22.8629      1.00000
     11      -5.3079      1.00000
     12      -4.6275      1.00000
     13       1.3965      1.00000
     14       1.3965      1.00000
     15       5.9876      0.00000
     16       6.1650      0.00000
     17      15.6740      0.00000
     18      15.6740      0.00000
     19      17.4688      0.00000
     20      18.1402      0.00000
     21      18.8300      0.00000
     22      18.8300      0.00000
     23      19.3894      0.00000
     24      20.1257      0.00000
     25      24.6202      0.00000
     26      24.6202      0.00000
     27      24.6320      0.00000
     28      25.1998      0.00000
     29      26.0283      0.00000
     30      26.0283      0.00000
     31      26.3303      0.00000
     32      26.8164      0.00000
     33      35.5201      0.00000
     34      35.5203      0.00000
     35      36.0787      0.00000
     36      36.8025      0.00000
     37      38.3499      0.00000
     38      38.3499      0.00000
     39      38.6797      0.00000
     40      40.5845      0.00000
     41      40.9967      0.00000
     42      41.4572      0.00000
     43      42.4318      0.00000
     44      42.4342      0.00000
     45      43.9218      0.00000
     46      43.9368      0.00000
     47      45.3967      0.00000
     48      45.4116      0.00000
     49      46.4476      0.00000
     50      46.4667      0.00000
     51      53.3315      0.00000
     52      54.4455      0.00000
     53      54.6629      0.00000
     54      55.1105      0.00000

 k-point   115 :       0.4898    0.0000    0.4898
  band No.  band energies     occupation 
      1     -23.2087      1.00000
      2     -23.2087      1.00000
      3     -23.1232      1.00000
      4     -23.1155      1.00000
      5     -23.0195      1.00000
      6     -23.0120      1.00000
      7     -22.9598      1.00000
      8     -22.9519      1.00000
      9     -22.8628      1.00000
     10     -22.8628      1.00000
     11      -5.1418      1.00000
     12      -4.8015      1.00000
     13       1.3904      1.00000
     14       1.3905      1.00000
     15       6.0247      0.00000
     16       6.1134      0.00000
     17      15.7274      0.00000
     18      15.7275      0.00000
     19      17.6498      0.00000
     20      17.9872      0.00000
     21      18.7701      0.00000
     22      18.7701      0.00000
     23      19.5679      0.00000
     24      19.9361      0.00000
     25      24.9023      0.00000
     26      24.9366      0.00000
     27      24.9366      0.00000
     28      25.2515      0.00000
     29      25.6959      0.00000
     30      25.6959      0.00000
     31      26.2274      0.00000
     32      26.5374      0.00000
     33      35.5495      0.00000
     34      35.5498      0.00000
     35      36.2703      0.00000
     36      36.6302      0.00000
     37      38.3132      0.00000
     38      38.3132      0.00000
     39      39.1729      0.00000
     40      40.1761      0.00000
     41      41.0228      0.00000
     42      41.3016      0.00000
     43      42.4259      0.00000
     44      42.4298      0.00000
     45      43.9159      0.00000
     46      43.9255      0.00000
     47      45.3853      0.00000
     48      45.4033      0.00000
     49      46.4523      0.00000
     50      46.4855      0.00000
     51      53.9762      0.00000
     52      54.5749      0.00000
     53      54.8650      0.00000
     54      55.5593      0.00000

 k-point   116 :       0.5000    0.0000    0.5000
  band No.  band energies     occupation 
      1     -23.2087      1.00000
      2     -23.2087      1.00000
      3     -23.1194      1.00000
      4     -23.1194      1.00000
      5     -23.0157      1.00000
      6     -23.0157      1.00000
      7     -22.9558      1.00000
      8     -22.9558      1.00000
      9     -22.8627      1.00000
     10     -22.8627      1.00000
     11      -4.9729      1.00000
     12      -4.9729      1.00000
     13       1.3884      1.00000
     14       1.3884      1.00000
     15       6.0666      0.00000
     16       6.0667      0.00000
     17      15.7457      0.00000
     18      15.7458      0.00000
     19      17.8231      0.00000
     20      17.8231      0.00000
     21      18.7496      0.00000
     22      18.7497      0.00000
     23      19.7501      0.00000
     24      19.7501      0.00000
     25      25.1315      0.00000
     26      25.1315      0.00000
     27      25.1496      0.00000
     28      25.1496      0.00000
     29      25.4776      0.00000
     30      25.4776      0.00000
     31      26.3178      0.00000
     32      26.3179      0.00000
     33      35.5594      0.00000
     34      35.5594      0.00000
     35      36.4531      0.00000
     36      36.4531      0.00000
     37      38.3007      0.00000
     38      38.3007      0.00000
     39      39.6760      0.00000
     40      39.6764      0.00000
     41      41.1537      0.00000
     42      41.1546      0.00000
     43      42.4236      0.00000
     44      42.4238      0.00000
     45      43.9186      0.00000
     46      43.9192      0.00000
     47      45.3854      0.00000
     48      45.3902      0.00000
     49      46.4462      0.00000
     50      46.4644      0.00000
     51      54.2134      0.00000
     52      54.3966      0.00000
     53      55.3884      0.00000
     54      56.0203      0.00000


--------------------------------------------------------------------------------------------------------


 soft charge-density along one line, spin component           1
         0         1         2         3         4         5         6         7         8         9
 total charge-density along one line
 
 soft charge-density along one line, spin component           2
         0         1         2         3         4         5         6         7         8         9
 total charge-density along one line
 
 pseudopotential strength for first ion, spin component:           1
-19.470   0.000  -0.000   0.000   0.000   2.959  -0.000   0.000
  0.000 -19.470   0.000   0.000  -0.000  -0.000   2.959  -0.000
 -0.000   0.000 -19.469   0.000   0.000   0.000  -0.000   2.958
  0.000   0.000   0.000 -19.470   0.000  -0.000  -0.000  -0.000
  0.000  -0.000   0.000   0.000 -19.469  -0.000   0.000  -0.000
  2.959  -0.000   0.000  -0.000  -0.000   2.527   0.000   0.000
 -0.000   2.959  -0.000  -0.000   0.000   0.000   2.527  -0.000
  0.000  -0.000   2.958  -0.000  -0.000   0.000  -0.000   2.527
 -0.000  -0.000  -0.000   2.959  -0.000   0.000   0.000  -0.000
 -0.000   0.000  -0.000  -0.000   2.958   0.000   0.000   0.000
  0.000   0.000   0.000   0.000  -0.000  -0.000  -0.000   0.000
  0.000   0.000   0.000   0.000  -0.000  -0.000  -0.000   0.000
  0.000  -0.000   0.000   0.004   0.000  -0.000   0.000  -0.000
  0.004   0.000  -0.000   0.000   0.000  -0.003  -0.000   0.000
 -0.000   0.004   0.000   0.000  -0.000  -0.000  -0.003  -0.000
  0.000  -0.000   0.000   0.007   0.000  -0.000   0.000  -0.000
  0.007   0.000  -0.000   0.000   0.000  -0.005  -0.000   0.000
 -0.000   0.007   0.000   0.000  -0.000  -0.000  -0.005  -0.000
 pseudopotential strength for first ion, spin component:           2
-19.470   0.000  -0.000   0.000  -0.000   2.959  -0.000   0.000
  0.000 -19.470   0.000   0.000  -0.000  -0.000   2.959  -0.000
 -0.000   0.000 -19.469   0.000   0.000   0.000  -0.000   2.958
  0.000   0.000   0.000 -19.470   0.000  -0.000  -0.000  -0.000
 -0.000  -0.000   0.000   0.000 -19.469   0.000   0.000  -0.000
  2.959  -0.000   0.000  -0.000   0.000   2.527   0.000   0.000
 -0.000   2.959  -0.000  -0.000   0.000   0.000   2.527  -0.000
  0.000  -0.000   2.958  -0.000  -0.000   0.000  -0.000   2.527
 -0.000  -0.000  -0.000   2.959  -0.000   0.000   0.000  -0.000
  0.000   0.000  -0.000  -0.000   2.958  -0.000   0.000   0.000
  0.000   0.000  -0.000   0.000  -0.000  -0.000  -0.000   0.000
  0.000   0.000  -0.000   0.000  -0.000  -0.000  -0.000   0.000
 -0.000  -0.000   0.000   0.004   0.000  -0.000  -0.000  -0.000
  0.004   0.000  -0.000  -0.000   0.000  -0.003  -0.000   0.000
 -0.000   0.004   0.000  -0.000  -0.000  -0.000  -0.003  -0.000
 -0.000  -0.000   0.000   0.007   0.000  -0.000  -0.000  -0.000
  0.007   0.000  -0.000  -0.000   0.000  -0.005  -0.000   0.000
 -0.000   0.007   0.000  -0.000  -0.000  -0.000  -0.005  -0.000
 total augmentation occupancy for first ion, spin component:           1
  1.994  -0.000  -0.000  -0.000   0.000  -0.002  -0.000  -0.000  -0.000  -0.000  -0.000   0.000  -0.000   0.073   0.000   0.000
 -0.000   1.994   0.000  -0.000  -0.000  -0.000  -0.002   0.000  -0.000  -0.000  -0.000   0.000   0.000  -0.000   0.073  -0.000
 -0.000   0.000   1.991  -0.000  -0.000  -0.000   0.000  -0.012   0.000   0.000   0.000  -0.000   0.000  -0.000  -0.000  -0.000
 -0.000  -0.000  -0.000   1.994  -0.000  -0.000  -0.000  -0.000  -0.002  -0.000  -0.000   0.000   0.073   0.000  -0.000  -0.025
  0.000  -0.000  -0.000  -0.000   1.991   0.000  -0.000  -0.000  -0.000  -0.012   0.000  -0.000  -0.000   0.000  -0.000   0.000
 -0.002  -0.000  -0.000  -0.000   0.000   0.047   0.000   0.000  -0.000   0.000  -0.000   0.000  -0.000   0.261   0.000   0.000
 -0.000  -0.002   0.000  -0.000  -0.000   0.000   0.047  -0.000   0.000   0.000  -0.000   0.000   0.000   0.000   0.261  -0.000
 -0.000   0.000  -0.012  -0.000  -0.000   0.000  -0.000   0.012   0.000   0.000  -0.000   0.000   0.000   0.000  -0.000   0.000
 -0.000  -0.000   0.000  -0.002  -0.000  -0.000   0.000   0.000   0.047  -0.000  -0.000   0.000   0.261  -0.000   0.000  -0.050
 -0.000  -0.000   0.000  -0.000  -0.012   0.000   0.000   0.000  -0.000   0.012  -0.000   0.000  -0.000   0.000  -0.000   0.000
 -0.000  -0.000   0.000  -0.000   0.000  -0.000  -0.000  -0.000  -0.000  -0.000   5.080  -1.912  -0.000  -0.000  -0.000   0.000
  0.000   0.000  -0.000   0.000  -0.000   0.000   0.000   0.000   0.000   0.000  -1.912   0.809   0.000   0.000   0.000  -0.000
 -0.000   0.000   0.000   0.073  -0.000  -0.000   0.000   0.000   0.261  -0.000  -0.000   0.000   2.354  -0.000   0.000  -0.453
  0.073  -0.000  -0.000   0.000   0.000   0.261   0.000   0.000  -0.000   0.000  -0.000   0.000  -0.000   2.354   0.000   0.000
  0.000   0.073  -0.000  -0.000  -0.000   0.000   0.261  -0.000   0.000  -0.000  -0.000   0.000   0.000   0.000   2.354  -0.000
  0.000  -0.000  -0.000  -0.025   0.000   0.000  -0.000   0.000  -0.050   0.000   0.000  -0.000  -0.453   0.000  -0.000   0.093
 -0.025   0.000   0.000  -0.000  -0.000  -0.050  -0.000  -0.000   0.000  -0.000   0.000  -0.000   0.000  -0.453  -0.000  -0.000
 -0.000  -0.025   0.000   0.000   0.000  -0.000  -0.050  -0.000   0.000   0.000   0.000  -0.000   0.000  -0.000  -0.453   0.000
 total augmentation occupancy for first ion, spin component:           2
 -0.000   0.000   0.000   0.000   0.000  -0.000   0.000   0.000   0.000   0.000  -0.000   0.000   0.000  -0.000   0.000  -0.000
  0.000  -0.000  -0.000   0.000  -0.000   0.000  -0.000  -0.000  -0.000  -0.000   0.000  -0.000   0.000  -0.000  -0.000  -0.000
  0.000  -0.000  -0.000   0.000   0.000   0.000  -0.000  -0.000   0.000  -0.000  -0.000   0.000   0.000   0.000  -0.000  -0.000
  0.000   0.000   0.000  -0.000  -0.000   0.000   0.000  -0.000  -0.000  -0.000  -0.000   0.000  -0.000   0.000  -0.000   0.000
  0.000  -0.000   0.000  -0.000  -0.000   0.000  -0.000   0.000  -0.000  -0.000  -0.000   0.000  -0.000  -0.000  -0.000   0.000
 -0.000   0.000   0.000   0.000   0.000   0.000  -0.000   0.000   0.000  -0.000  -0.000  -0.000   0.000   0.000  -0.000   0.000
  0.000  -0.000  -0.000   0.000  -0.000  -0.000   0.000   0.000  -0.000   0.000  -0.000   0.000  -0.000  -0.000   0.000  -0.000
  0.000  -0.000  -0.000  -0.000   0.000   0.000   0.000   0.000  -0.000  -0.000  -0.000   0.000  -0.000   0.000   0.000   0.000
  0.000  -0.000   0.000  -0.000  -0.000   0.000  -0.000  -0.000   0.000   0.000  -0.000   0.000   0.000  -0.000   0.000  -0.000
  0.000  -0.000  -0.000  -0.000  -0.000  -0.000   0.000  -0.000   0.000   0.000  -0.000   0.000   0.000  -0.000   0.000  -0.000
 -0.000   0.000  -0.000  -0.000  -0.000  -0.000  -0.000  -0.000  -0.000  -0.000   0.000  -0.000  -0.000  -0.000  -0.000   0.000
  0.000  -0.000   0.000   0.000   0.000  -0.000   0.000   0.000   0.000   0.000  -0.000   0.000   0.000   0.000   0.000  -0.000
  0.000   0.000   0.000  -0.000  -0.000   0.000  -0.000  -0.000   0.000   0.000  -0.000   0.000   0.000  -0.000  -0.000  -0.000
 -0.000  -0.000   0.000   0.000  -0.000   0.000  -0.000   0.000  -0.000  -0.000  -0.000   0.000  -0.000   0.000  -0.000   0.000
  0.000  -0.000  -0.000  -0.000  -0.000  -0.000   0.000   0.000   0.000   0.000  -0.000   0.000  -0.000  -0.000   0.000  -0.000
 -0.000  -0.000  -0.000   0.000   0.000   0.000  -0.000   0.000  -0.000  -0.000   0.000  -0.000  -0.000   0.000  -0.000   0.000
  0.000   0.000  -0.000  -0.000   0.000  -0.000   0.000  -0.000   0.000   0.000   0.000  -0.000   0.000  -0.000   0.000  -0.000
 -0.000   0.000   0.000   0.000   0.000  -0.000  -0.000  -0.000   0.000  -0.000   0.000  -0.000   0.000  -0.000  -0.000  -0.000


------------------------ aborting loop because EDIFF is reached ----------------------------------------


 


 total charge     
 
# of ion       s       p       d       tot
------------------------------------------
    1        1.110   1.312  10.030  12.452
    2        1.110   1.312  10.030  12.452
--------------------------------------------------
tot          2.220   2.623  20.061  24.904
 


 magnetization (x)
 
# of ion       s       p       d       tot
------------------------------------------
    1        0.000   0.000  -0.000   0.000
    2       -0.000   0.000  -0.000  -0.000
--------------------------------------------------
tot         -0.000   0.000  -0.000  -0.000
 
    FORLOC:  cpu time    0.0016: real time    0.0016
    FORHF :  cpu time  209.3919: real time  210.7266
    FORNL :  cpu time    0.0589: real time    0.0593
    FORCOR:  cpu time    0.2406: real time    0.2422
    OFIELD:  cpu time    0.0001: real time    0.0001

 VOLUME and BASIS-vectors are now :
 -----------------------------------------------------------------------------
  energy-cutoff  :      450.00
  volume of cell :       44.68
      direct lattice vectors                 reciprocal lattice vectors
     0.000000000  2.816500000  2.816500000    -0.177525297  0.177525297  0.177525297
     2.816500000  0.000000000  2.816500000     0.177525297 -0.177525297  0.177525297
     2.816500000  2.816500000  0.000000000     0.177525297  0.177525297 -0.177525297

  length of vectors
     3.983132498  3.983132498  3.983132498     0.307482835  0.307482835  0.307482835


 FORCES acting on ions:
    Electron-Ion                     Ewald-Force                    Non-Local-Force
 -----------------------------------------------------------------------------------------------
   0.132E-04 0.333E-04 0.256E-04   0.347E-13 0.213E-13 0.640E-13   0.555E-16 0.486E-16 0.486E-16
   -.100E-04 -.937E-05 0.106E-04   -.341E-13 -.194E-13 -.605E-13   -.625E-16 -.416E-16 -.625E-16
 -----------------------------------------------------------------------------------------------
   0.320E-05 0.240E-04 0.363E-04   0.562E-15 0.183E-14 0.346E-14   -.694E-17 0.694E-17 -.139E-16
 
 
 POSITION                                       TOTAL-FORCE (eV/Angst)
 -----------------------------------------------------------------------------------
      0.00000      0.00000      0.00000        -0.000000      0.000000     -0.000000
      1.40825      1.40825      1.40825         0.000000     -0.000000      0.000000
 -----------------------------------------------------------------------------------
    total drift:                                0.000003      0.000024      0.000036


--------------------------------------------------------------------------------------------------------



  FREE ENERGIE OF THE ION-ELECTRON SYSTEM (eV)
  ---------------------------------------------------
  free  energy   TOTEN  =       -10.67911279 eV

  energy  without entropy=      -10.67911279  energy(sigma->0) =      -10.67911279
 


--------------------------------------------------------------------------------------------------------


    POTLOK:  cpu time    0.2389: real time    0.2405


--------------------------------------------------------------------------------------------------------


     LOOP+:  cpu time 6452.7761: real time 6554.3894
    4ORBIT:  cpu time    0.0000: real time    0.0000
 


 total charge     
 
# of ion       s       p       d       tot
------------------------------------------
    1        1.110   1.312  10.030  12.452
    2        1.110   1.312  10.030  12.452
--------------------------------------------------
tot          2.220   2.623  20.061  24.904
 


 magnetization (x)
 
# of ion       s       p       d       tot
------------------------------------------
    1        0.000   0.000  -0.000   0.000
    2       -0.000   0.000  -0.000  -0.000
--------------------------------------------------
tot         -0.000   0.000  -0.000  -0.000
 

 total amount of memory used by VASP MPI-rank0   112827. kBytes
=======================================================================

   base      :      30000. kBytes
   nonl-proj :       5874. kBytes
   fftplans  :        746. kBytes
   grid      :       1402. kBytes
   one-center:         31. kBytes
   HF        :         64. kBytes
   nonlr-proj:        745. kBytes
   wavefun   :      73965. kBytes
 
  
  
 General timing and accounting informations for this job:
 ========================================================
  
                  Total CPU time used (sec):     6518.857
                            User time (sec):     6468.806
                          System time (sec):       50.050
                         Elapsed time (sec):     6624.571
  
                   Maximum memory used (kb):      402028.
                   Average memory used (kb):           0.
  
                          Minor page faults:       272371
                          Major page faults:            0
                 Voluntary context switches:         3808
